LAMMPS data file via write_data, version 30 Nov 2020, timestep = 0

30217 atoms
3 atom types

0 114 xlo xhi
0 114 ylo yhi
0 114 zlo zhi

Masses

1 63.546
2 55.845
3 58.6934

Atoms # atomic

6 1 5.3700000000000045 51.91 53.7 0 0 0
9 1 5.3700000000000045 53.7 51.91 0 0 0
10 1 3.5799999999999983 53.7 53.7 0 0 0
11 1 3.5799999999999983 55.49 55.49 0 0 0
12 1 5.3700000000000045 53.7 55.49 0 0 0
13 1 5.3700000000000045 55.49 53.7 0 0 0
43 1 8.950000000000003 48.33 53.7 0 0 0
46 1 7.160000000000003 51.91 51.91 0 0 0
47 3 8.950000000000003 50.120000000000005 51.91 0 0 0
48 1 8.950000000000003 51.91 50.120000000000005 0 0 0
49 1 7.160000000000003 50.120000000000005 53.7 0 0 0
50 1 7.160000000000003 51.91 55.49 0 0 0
51 3 8.950000000000003 50.120000000000005 55.49 0 0 0
52 1 8.950000000000003 51.91 53.7 0 0 0
62 2 8.950000000000003 53.7 48.33 0 0 0
63 1 7.160000000000003 53.7 50.120000000000005 0 0 0
64 1 7.160000000000003 55.49 51.91 0 0 0
65 1 8.950000000000003 53.7 51.91 0 0 0
66 1 8.950000000000003 55.49 50.120000000000005 0 0 0
67 1 7.160000000000003 53.7 53.7 0 0 0
68 1 7.160000000000003 55.49 55.49 0 0 0
69 1 8.950000000000003 53.7 55.49 0 0 0
70 1 8.950000000000003 55.49 53.7 0 0 0
132 1 12.530000000000001 44.75 53.7 0 0 0
135 2 10.74 48.33 48.33 0 0 0
136 1 12.530000000000001 46.540000000000006 48.33 0 0 0
137 2 12.530000000000001 48.33 46.540000000000006 0 0 0
138 2 10.74 48.33 51.91 0 0 0
139 2 12.530000000000001 46.540000000000006 51.91 0 0 0
140 1 12.530000000000001 48.33 50.120000000000005 0 0 0
141 3 10.74 46.540000000000006 53.7 0 0 0
142 2 10.74 48.33 55.49 0 0 0
143 1 12.530000000000001 46.540000000000006 55.49 0 0 0
144 3 12.530000000000001 48.33 53.7 0 0 0
157 1 10.74 51.91 48.33 0 0 0
158 1 12.530000000000001 50.120000000000005 48.33 0 0 0
159 1 12.530000000000001 51.91 46.540000000000006 0 0 0
160 1 10.74 50.120000000000005 50.120000000000005 0 0 0
161 1 10.74 51.91 51.91 0 0 0
162 1 12.530000000000001 50.120000000000005 51.91 0 0 0
163 2 12.530000000000001 51.91 50.120000000000005 0 0 0
164 3 10.74 50.120000000000005 53.7 0 0 0
165 1 10.74 51.91 55.49 0 0 0
166 2 12.530000000000001 50.120000000000005 55.49 0 0 0
167 1 12.530000000000001 51.91 53.7 0 0 0
181 1 12.530000000000001 53.7 44.75 0 0 0
182 2 10.74 53.7 46.540000000000006 0 0 0
183 1 10.74 55.49 48.33 0 0 0
184 1 12.530000000000001 53.7 48.33 0 0 0
185 1 12.530000000000001 55.49 46.540000000000006 0 0 0
186 1 10.74 53.7 50.120000000000005 0 0 0
187 1 10.74 55.49 51.91 0 0 0
188 2 12.530000000000001 53.7 51.91 0 0 0
189 1 12.530000000000001 55.49 50.120000000000005 0 0 0
190 1 10.74 53.7 53.7 0 0 0
191 1 10.74 55.49 55.49 0 0 0
192 1 12.530000000000001 53.7 55.49 0 0 0
193 1 12.530000000000001 55.49 53.7 0 0 0
301 2 16.11 41.17 53.7 0 0 0
304 3 14.319999999999999 44.75 48.33 0 0 0
305 3 16.11 42.959999999999994 48.33 0 0 0
306 1 16.11 44.75 46.540000000000006 0 0 0
307 1 14.319999999999999 44.75 51.91 0 0 0
308 1 16.11 42.959999999999994 51.91 0 0 0
309 3 16.11 44.75 50.120000000000005 0 0 0
310 1 14.319999999999999 42.959999999999994 53.7 0 0 0
311 3 14.319999999999999 44.75 55.49 0 0 0
312 3 16.11 42.959999999999994 55.49 0 0 0
313 1 16.11 44.75 53.7 0 0 0
326 3 14.319999999999999 48.33 44.75 0 0 0
327 2 16.11 46.540000000000006 44.75 0 0 0
328 1 16.11 48.33 42.959999999999994 0 0 0
329 1 14.319999999999999 46.540000000000006 46.540000000000006 0 0 0
330 1 14.319999999999999 48.33 48.33 0 0 0
331 1 16.11 46.540000000000006 48.33 0 0 0
332 2 16.11 48.33 46.540000000000006 0 0 0
333 2 14.319999999999999 46.540000000000006 50.120000000000005 0 0 0
334 1 14.319999999999999 48.33 51.91 0 0 0
335 1 16.11 46.540000000000006 51.91 0 0 0
336 2 16.11 48.33 50.120000000000005 0 0 0
337 1 14.319999999999999 46.540000000000006 53.7 0 0 0
338 2 14.319999999999999 48.33 55.49 0 0 0
339 1 16.11 46.540000000000006 55.49 0 0 0
340 3 16.11 48.33 53.7 0 0 0
358 1 14.319999999999999 51.91 44.75 0 0 0
359 1 16.11 50.120000000000005 44.75 0 0 0
360 1 16.11 51.91 42.959999999999994 0 0 0
361 1 14.319999999999999 50.120000000000005 46.540000000000006 0 0 0
362 2 14.319999999999999 51.91 48.33 0 0 0
363 3 16.11 50.120000000000005 48.33 0 0 0
364 3 16.11 51.91 46.540000000000006 0 0 0
365 1 14.319999999999999 50.120000000000005 50.120000000000005 0 0 0
366 1 14.319999999999999 51.91 51.91 0 0 0
367 1 16.11 50.120000000000005 51.91 0 0 0
368 3 16.11 51.91 50.120000000000005 0 0 0
369 1 14.319999999999999 50.120000000000005 53.7 0 0 0
370 2 14.319999999999999 51.91 55.49 0 0 0
371 2 16.11 50.120000000000005 55.49 0 0 0
372 3 16.11 51.91 53.7 0 0 0
390 1 16.11 53.7 41.17 0 0 0
391 1 14.319999999999999 53.7 42.959999999999994 0 0 0
392 1 14.319999999999999 55.49 44.75 0 0 0
393 2 16.11 53.7 44.75 0 0 0
394 1 16.11 55.49 42.959999999999994 0 0 0
395 3 14.319999999999999 53.7 46.540000000000006 0 0 0
396 2 14.319999999999999 55.49 48.33 0 0 0
397 1 16.11 53.7 48.33 0 0 0
398 1 16.11 55.49 46.540000000000006 0 0 0
399 1 14.319999999999999 53.7 50.120000000000005 0 0 0
400 1 14.319999999999999 55.49 51.91 0 0 0
401 3 16.11 53.7 51.91 0 0 0
402 1 16.11 55.49 50.120000000000005 0 0 0
403 3 14.319999999999999 53.7 53.7 0 0 0
404 1 14.319999999999999 55.49 55.49 0 0 0
405 1 16.11 53.7 55.49 0 0 0
406 1 16.11 55.49 53.7 0 0 0
570 2 19.689999999999994 37.59 53.7 0 0 0
573 1 17.900000000000006 41.17 48.33 0 0 0
574 3 19.689999999999994 39.38 48.33 0 0 0
575 1 19.689999999999994 41.17 46.540000000000006 0 0 0
576 1 17.900000000000006 41.17 51.91 0 0 0
577 1 19.689999999999994 39.38 51.91 0 0 0
578 2 19.689999999999994 41.17 50.120000000000005 0 0 0
579 1 17.900000000000006 39.38 53.7 0 0 0
580 1 17.900000000000006 41.17 55.49 0 0 0
581 3 19.689999999999994 39.38 55.49 0 0 0
582 1 19.689999999999994 41.17 53.7 0 0 0
595 2 17.900000000000006 44.75 44.75 0 0 0
596 1 19.689999999999994 42.959999999999994 44.75 0 0 0
597 3 19.689999999999994 44.75 42.959999999999994 0 0 0
598 1 17.900000000000006 42.959999999999994 46.540000000000006 0 0 0
599 3 17.900000000000006 44.75 48.33 0 0 0
600 2 19.689999999999994 42.959999999999994 48.33 0 0 0
601 1 19.689999999999994 44.75 46.540000000000006 0 0 0
602 2 17.900000000000006 42.959999999999994 50.120000000000005 0 0 0
603 1 17.900000000000006 44.75 51.91 0 0 0
604 3 19.689999999999994 42.959999999999994 51.91 0 0 0
605 1 19.689999999999994 44.75 50.120000000000005 0 0 0
606 3 17.900000000000006 42.959999999999994 53.7 0 0 0
607 2 17.900000000000006 44.75 55.49 0 0 0
608 1 19.689999999999994 42.959999999999994 55.49 0 0 0
609 1 19.689999999999994 44.75 53.7 0 0 0
627 2 17.900000000000006 48.33 41.17 0 0 0
628 1 19.689999999999994 46.540000000000006 41.17 0 0 0
629 1 19.689999999999994 48.33 39.38 0 0 0
630 1 17.900000000000006 46.540000000000006 42.959999999999994 0 0 0
631 1 17.900000000000006 48.33 44.75 0 0 0
632 1 19.689999999999994 46.540000000000006 44.75 0 0 0
633 1 19.689999999999994 48.33 42.959999999999994 0 0 0
634 2 17.900000000000006 46.540000000000006 46.540000000000006 0 0 0
635 1 17.900000000000006 48.33 48.33 0 0 0
636 3 19.689999999999994 46.540000000000006 48.33 0 0 0
637 1 19.689999999999994 48.33 46.540000000000006 0 0 0
638 1 17.900000000000006 46.540000000000006 50.120000000000005 0 0 0
639 1 17.900000000000006 48.33 51.91 0 0 0
640 1 19.689999999999994 46.540000000000006 51.91 0 0 0
641 3 19.689999999999994 48.33 50.120000000000005 0 0 0
642 2 17.900000000000006 46.540000000000006 53.7 0 0 0
643 2 17.900000000000006 48.33 55.49 0 0 0
644 1 19.689999999999994 46.540000000000006 55.49 0 0 0
645 3 19.689999999999994 48.33 53.7 0 0 0
667 1 17.900000000000006 51.91 41.17 0 0 0
668 1 19.689999999999994 50.120000000000005 41.17 0 0 0
669 2 19.689999999999994 51.91 39.38 0 0 0
670 1 17.900000000000006 50.120000000000005 42.959999999999994 0 0 0
671 1 17.900000000000006 51.91 44.75 0 0 0
672 2 19.689999999999994 50.120000000000005 44.75 0 0 0
673 3 19.689999999999994 51.91 42.959999999999994 0 0 0
674 1 17.900000000000006 50.120000000000005 46.540000000000006 0 0 0
675 1 17.900000000000006 51.91 48.33 0 0 0
676 2 19.689999999999994 50.120000000000005 48.33 0 0 0
677 2 19.689999999999994 51.91 46.540000000000006 0 0 0
678 1 17.900000000000006 50.120000000000005 50.120000000000005 0 0 0
679 1 17.900000000000006 51.91 51.91 0 0 0
680 3 19.689999999999994 50.120000000000005 51.91 0 0 0
681 1 19.689999999999994 51.91 50.120000000000005 0 0 0
682 3 17.900000000000006 50.120000000000005 53.7 0 0 0
683 1 17.900000000000006 51.91 55.49 0 0 0
684 2 19.689999999999994 50.120000000000005 55.49 0 0 0
685 1 19.689999999999994 51.91 53.7 0 0 0
707 1 19.689999999999994 53.7 37.59 0 0 0
708 1 17.900000000000006 53.7 39.38 0 0 0
709 3 17.900000000000006 55.49 41.17 0 0 0
710 1 19.689999999999994 53.7 41.17 0 0 0
711 1 19.689999999999994 55.49 39.38 0 0 0
712 1 17.900000000000006 53.7 42.959999999999994 0 0 0
713 1 17.900000000000006 55.49 44.75 0 0 0
714 2 19.689999999999994 53.7 44.75 0 0 0
715 1 19.689999999999994 55.49 42.959999999999994 0 0 0
716 1 17.900000000000006 53.7 46.540000000000006 0 0 0
717 2 17.900000000000006 55.49 48.33 0 0 0
718 2 19.689999999999994 53.7 48.33 0 0 0
719 1 19.689999999999994 55.49 46.540000000000006 0 0 0
720 1 17.900000000000006 53.7 50.120000000000005 0 0 0
721 2 17.900000000000006 55.49 51.91 0 0 0
722 3 19.689999999999994 53.7 51.91 0 0 0
723 3 19.689999999999994 55.49 50.120000000000005 0 0 0
724 2 17.900000000000006 53.7 53.7 0 0 0
725 1 17.900000000000006 55.49 55.49 0 0 0
726 1 19.689999999999994 53.7 55.49 0 0 0
727 2 19.689999999999994 55.49 53.7 0 0 0
955 1 23.270000000000003 34.00999999999999 53.7 0 0 0
958 1 21.48 37.59 48.33 0 0 0
959 1 23.270000000000003 35.800000000000004 48.33 0 0 0
960 2 23.270000000000003 37.59 46.540000000000006 0 0 0
961 3 21.48 37.59 51.91 0 0 0
962 3 23.270000000000003 35.800000000000004 51.91 0 0 0
963 3 23.270000000000003 37.59 50.120000000000005 0 0 0
964 2 21.48 35.800000000000004 53.7 0 0 0
965 2 21.48 37.59 55.49 0 0 0
966 1 23.270000000000003 35.800000000000004 55.49 0 0 0
967 1 23.270000000000003 37.59 53.7 0 0 0
980 1 21.48 41.17 41.17 0 0 0
981 3 23.270000000000003 39.38 41.17 0 0 0
982 1 23.270000000000003 41.17 39.38 0 0 0
983 1 21.48 41.17 44.75 0 0 0
984 2 23.270000000000003 39.38 44.75 0 0 0
985 1 23.270000000000003 41.17 42.959999999999994 0 0 0
986 2 21.48 39.38 46.540000000000006 0 0 0
987 1 21.48 41.17 48.33 0 0 0
988 1 23.270000000000003 39.38 48.33 0 0 0
989 1 23.270000000000003 41.17 46.540000000000006 0 0 0
990 3 21.48 39.38 50.120000000000005 0 0 0
991 1 21.48 41.17 51.91 0 0 0
992 1 23.270000000000003 39.38 51.91 0 0 0
993 1 23.270000000000003 41.17 50.120000000000005 0 0 0
994 3 21.48 39.38 53.7 0 0 0
995 1 21.48 41.17 55.49 0 0 0
996 3 23.270000000000003 39.38 55.49 0 0 0
997 1 23.270000000000003 41.17 53.7 0 0 0
1018 1 21.48 44.75 41.17 0 0 0
1019 2 23.270000000000003 42.959999999999994 41.17 0 0 0
1020 1 23.270000000000003 44.75 39.38 0 0 0
1021 1 21.48 42.959999999999994 42.959999999999994 0 0 0
1022 1 21.48 44.75 44.75 0 0 0
1023 2 23.270000000000003 42.959999999999994 44.75 0 0 0
1024 1 23.270000000000003 44.75 42.959999999999994 0 0 0
1025 1 21.48 42.959999999999994 46.540000000000006 0 0 0
1026 3 21.48 44.75 48.33 0 0 0
1027 1 23.270000000000003 42.959999999999994 48.33 0 0 0
1028 3 23.270000000000003 44.75 46.540000000000006 0 0 0
1029 2 21.48 42.959999999999994 50.120000000000005 0 0 0
1030 3 21.48 44.75 51.91 0 0 0
1031 1 23.270000000000003 42.959999999999994 51.91 0 0 0
1032 3 23.270000000000003 44.75 50.120000000000005 0 0 0
1033 1 21.48 42.959999999999994 53.7 0 0 0
1034 3 21.48 44.75 55.49 0 0 0
1035 1 23.270000000000003 42.959999999999994 55.49 0 0 0
1036 1 23.270000000000003 44.75 53.7 0 0 0
1058 2 21.48 48.33 37.59 0 0 0
1059 1 23.270000000000003 46.540000000000006 37.59 0 0 0
1060 3 23.270000000000003 48.33 35.800000000000004 0 0 0
1061 2 21.48 46.540000000000006 39.38 0 0 0
1062 1 21.48 48.33 41.17 0 0 0
1063 2 23.270000000000003 46.540000000000006 41.17 0 0 0
1064 2 23.270000000000003 48.33 39.38 0 0 0
1065 1 21.48 46.540000000000006 42.959999999999994 0 0 0
1066 1 21.48 48.33 44.75 0 0 0
1067 1 23.270000000000003 46.540000000000006 44.75 0 0 0
1068 2 23.270000000000003 48.33 42.959999999999994 0 0 0
1069 1 21.48 46.540000000000006 46.540000000000006 0 0 0
1070 3 21.48 48.33 48.33 0 0 0
1071 2 23.270000000000003 46.540000000000006 48.33 0 0 0
1072 1 23.270000000000003 48.33 46.540000000000006 0 0 0
1073 2 21.48 46.540000000000006 50.120000000000005 0 0 0
1074 2 21.48 48.33 51.91 0 0 0
1075 2 23.270000000000003 46.540000000000006 51.91 0 0 0
1076 1 23.270000000000003 48.33 50.120000000000005 0 0 0
1077 3 21.48 46.540000000000006 53.7 0 0 0
1078 1 21.48 48.33 55.49 0 0 0
1079 1 23.270000000000003 46.540000000000006 55.49 0 0 0
1080 3 23.270000000000003 48.33 53.7 0 0 0
1106 1 21.48 51.91 37.59 0 0 0
1107 1 23.270000000000003 50.120000000000005 37.59 0 0 0
1108 1 23.270000000000003 51.91 35.800000000000004 0 0 0
1109 1 21.48 50.120000000000005 39.38 0 0 0
1110 3 21.48 51.91 41.17 0 0 0
1111 1 23.270000000000003 50.120000000000005 41.17 0 0 0
1112 1 23.270000000000003 51.91 39.38 0 0 0
1113 2 21.48 50.120000000000005 42.959999999999994 0 0 0
1114 1 21.48 51.91 44.75 0 0 0
1115 1 23.270000000000003 50.120000000000005 44.75 0 0 0
1116 1 23.270000000000003 51.91 42.959999999999994 0 0 0
1117 2 21.48 50.120000000000005 46.540000000000006 0 0 0
1118 1 21.48 51.91 48.33 0 0 0
1119 1 23.270000000000003 50.120000000000005 48.33 0 0 0
1120 1 23.270000000000003 51.91 46.540000000000006 0 0 0
1121 2 21.48 50.120000000000005 50.120000000000005 0 0 0
1122 1 21.48 51.91 51.91 0 0 0
1123 1 23.270000000000003 50.120000000000005 51.91 0 0 0
1124 2 23.270000000000003 51.91 50.120000000000005 0 0 0
1125 1 21.48 50.120000000000005 53.7 0 0 0
1126 2 21.48 51.91 55.49 0 0 0
1127 1 23.270000000000003 50.120000000000005 55.49 0 0 0
1128 3 23.270000000000003 51.91 53.7 0 0 0
1154 1 23.270000000000003 53.7 34.00999999999999 0 0 0
1155 2 21.48 53.7 35.800000000000004 0 0 0
1156 3 21.48 55.49 37.59 0 0 0
1157 1 23.270000000000003 53.7 37.59 0 0 0
1158 1 23.270000000000003 55.49 35.800000000000004 0 0 0
1159 3 21.48 53.7 39.38 0 0 0
1160 1 21.48 55.49 41.17 0 0 0
1161 1 23.270000000000003 53.7 41.17 0 0 0
1162 1 23.270000000000003 55.49 39.38 0 0 0
1163 1 21.48 53.7 42.959999999999994 0 0 0
1164 1 21.48 55.49 44.75 0 0 0
1165 1 23.270000000000003 53.7 44.75 0 0 0
1166 1 23.270000000000003 55.49 42.959999999999994 0 0 0
1167 3 21.48 53.7 46.540000000000006 0 0 0
1168 1 21.48 55.49 48.33 0 0 0
1169 1 23.270000000000003 53.7 48.33 0 0 0
1170 1 23.270000000000003 55.49 46.540000000000006 0 0 0
1171 3 21.48 53.7 50.120000000000005 0 0 0
1172 1 21.48 55.49 51.91 0 0 0
1173 1 23.270000000000003 53.7 51.91 0 0 0
1174 1 23.270000000000003 55.49 50.120000000000005 0 0 0
1175 1 21.48 53.7 53.7 0 0 0
1176 3 21.48 55.49 55.49 0 0 0
1177 3 23.270000000000003 53.7 55.49 0 0 0
1178 3 23.270000000000003 55.49 53.7 0 0 0
1484 3 26.85 30.43 53.7 0 0 0
1487 1 25.060000000000002 34.00999999999999 48.33 0 0 0
1488 1 26.85 32.22 48.33 0 0 0
1489 3 26.85 34.00999999999999 46.540000000000006 0 0 0
1490 1 25.060000000000002 34.00999999999999 51.91 0 0 0
1491 2 26.85 32.22 51.91 0 0 0
1492 1 26.85 34.00999999999999 50.120000000000005 0 0 0
1493 1 25.060000000000002 32.22 53.7 0 0 0
1494 1 25.060000000000002 34.00999999999999 55.49 0 0 0
1495 3 26.85 32.22 55.49 0 0 0
1496 1 26.85 34.00999999999999 53.7 0 0 0
1509 3 25.060000000000002 37.59 41.17 0 0 0
1510 2 26.85 35.800000000000004 41.17 0 0 0
1511 3 26.85 37.59 39.38 0 0 0
1512 3 25.060000000000002 37.59 44.75 0 0 0
1513 2 26.85 35.800000000000004 44.75 0 0 0
1514 2 26.85 37.59 42.959999999999994 0 0 0
1515 2 25.060000000000002 35.800000000000004 46.540000000000006 0 0 0
1516 3 25.060000000000002 37.59 48.33 0 0 0
1517 3 26.85 35.800000000000004 48.33 0 0 0
1518 3 26.85 37.59 46.540000000000006 0 0 0
1519 1 25.060000000000002 35.800000000000004 50.120000000000005 0 0 0
1520 1 25.060000000000002 37.59 51.91 0 0 0
1521 1 26.85 35.800000000000004 51.91 0 0 0
1522 2 26.85 37.59 50.120000000000005 0 0 0
1523 1 25.060000000000002 35.800000000000004 53.7 0 0 0
1524 3 25.060000000000002 37.59 55.49 0 0 0
1525 1 26.85 35.800000000000004 55.49 0 0 0
1526 2 26.85 37.59 53.7 0 0 0
1547 1 25.060000000000002 41.17 37.59 0 0 0
1548 1 26.85 39.38 37.59 0 0 0
1549 2 26.85 41.17 35.800000000000004 0 0 0
1550 1 25.060000000000002 39.38 39.38 0 0 0
1551 2 25.060000000000002 41.17 41.17 0 0 0
1552 1 26.85 39.38 41.17 0 0 0
1553 1 26.85 41.17 39.38 0 0 0
1554 1 25.060000000000002 39.38 42.959999999999994 0 0 0
1555 1 25.060000000000002 41.17 44.75 0 0 0
1556 1 26.85 39.38 44.75 0 0 0
1557 1 26.85 41.17 42.959999999999994 0 0 0
1558 1 25.060000000000002 39.38 46.540000000000006 0 0 0
1559 1 25.060000000000002 41.17 48.33 0 0 0
1560 1 26.85 39.38 48.33 0 0 0
1561 1 26.85 41.17 46.540000000000006 0 0 0
1562 1 25.060000000000002 39.38 50.120000000000005 0 0 0
1563 1 25.060000000000002 41.17 51.91 0 0 0
1564 1 26.85 39.38 51.91 0 0 0
1565 1 26.85 41.17 50.120000000000005 0 0 0
1566 1 25.060000000000002 39.38 53.7 0 0 0
1567 1 25.060000000000002 41.17 55.49 0 0 0
1568 1 26.85 39.38 55.49 0 0 0
1569 1 26.85 41.17 53.7 0 0 0
1595 2 25.060000000000002 44.75 37.59 0 0 0
1596 1 26.85 42.959999999999994 37.59 0 0 0
1597 1 26.85 44.75 35.800000000000004 0 0 0
1598 1 25.060000000000002 42.959999999999994 39.38 0 0 0
1599 1 25.060000000000002 44.75 41.17 0 0 0
1600 1 26.85 42.959999999999994 41.17 0 0 0
1601 1 26.85 44.75 39.38 0 0 0
1602 3 25.060000000000002 42.959999999999994 42.959999999999994 0 0 0
1603 1 25.060000000000002 44.75 44.75 0 0 0
1604 1 26.85 42.959999999999994 44.75 0 0 0
1605 1 26.85 44.75 42.959999999999994 0 0 0
1606 3 25.060000000000002 42.959999999999994 46.540000000000006 0 0 0
1607 1 25.060000000000002 44.75 48.33 0 0 0
1608 1 26.85 42.959999999999994 48.33 0 0 0
1609 3 26.85 44.75 46.540000000000006 0 0 0
1610 2 25.060000000000002 42.959999999999994 50.120000000000005 0 0 0
1611 3 25.060000000000002 44.75 51.91 0 0 0
1612 2 26.85 42.959999999999994 51.91 0 0 0
1613 1 26.85 44.75 50.120000000000005 0 0 0
1614 1 25.060000000000002 42.959999999999994 53.7 0 0 0
1615 1 25.060000000000002 44.75 55.49 0 0 0
1616 3 26.85 42.959999999999994 55.49 0 0 0
1617 1 26.85 44.75 53.7 0 0 0
1643 1 25.060000000000002 48.33 34.00999999999999 0 0 0
1644 1 26.85 46.540000000000006 34.00999999999999 0 0 0
1645 2 26.85 48.33 32.22 0 0 0
1646 1 25.060000000000002 46.540000000000006 35.800000000000004 0 0 0
1647 1 25.060000000000002 48.33 37.59 0 0 0
1648 1 26.85 46.540000000000006 37.59 0 0 0
1649 1 26.85 48.33 35.800000000000004 0 0 0
1650 1 25.060000000000002 46.540000000000006 39.38 0 0 0
1651 3 25.060000000000002 48.33 41.17 0 0 0
1652 1 26.85 46.540000000000006 41.17 0 0 0
1653 1 26.85 48.33 39.38 0 0 0
1654 2 25.060000000000002 46.540000000000006 42.959999999999994 0 0 0
1655 1 25.060000000000002 48.33 44.75 0 0 0
1656 3 26.85 46.540000000000006 44.75 0 0 0
1657 3 26.85 48.33 42.959999999999994 0 0 0
1658 3 25.060000000000002 46.540000000000006 46.540000000000006 0 0 0
1659 1 25.060000000000002 48.33 48.33 0 0 0
1660 1 26.85 46.540000000000006 48.33 0 0 0
1661 3 26.85 48.33 46.540000000000006 0 0 0
1662 3 25.060000000000002 46.540000000000006 50.120000000000005 0 0 0
1663 1 25.060000000000002 48.33 51.91 0 0 0
1664 1 26.85 46.540000000000006 51.91 0 0 0
1665 1 26.85 48.33 50.120000000000005 0 0 0
1666 2 25.060000000000002 46.540000000000006 53.7 0 0 0
1667 2 25.060000000000002 48.33 55.49 0 0 0
1668 1 26.85 46.540000000000006 55.49 0 0 0
1669 1 26.85 48.33 53.7 0 0 0
1699 3 25.060000000000002 51.91 34.00999999999999 0 0 0
1700 1 26.85 50.120000000000005 34.00999999999999 0 0 0
1701 3 26.85 51.91 32.22 0 0 0
1702 1 25.060000000000002 50.120000000000005 35.800000000000004 0 0 0
1703 1 25.060000000000002 51.91 37.59 0 0 0
1704 1 26.85 50.120000000000005 37.59 0 0 0
1705 1 26.85 51.91 35.800000000000004 0 0 0
1706 3 25.060000000000002 50.120000000000005 39.38 0 0 0
1707 1 25.060000000000002 51.91 41.17 0 0 0
1708 3 26.85 50.120000000000005 41.17 0 0 0
1709 2 26.85 51.91 39.38 0 0 0
1710 1 25.060000000000002 50.120000000000005 42.959999999999994 0 0 0
1711 1 25.060000000000002 51.91 44.75 0 0 0
1712 1 26.85 50.120000000000005 44.75 0 0 0
1713 1 26.85 51.91 42.959999999999994 0 0 0
1714 3 25.060000000000002 50.120000000000005 46.540000000000006 0 0 0
1715 1 25.060000000000002 51.91 48.33 0 0 0
1716 2 26.85 50.120000000000005 48.33 0 0 0
1717 1 26.85 51.91 46.540000000000006 0 0 0
1718 1 25.060000000000002 50.120000000000005 50.120000000000005 0 0 0
1719 2 25.060000000000002 51.91 51.91 0 0 0
1720 3 26.85 50.120000000000005 51.91 0 0 0
1721 1 26.85 51.91 50.120000000000005 0 0 0
1722 1 25.060000000000002 50.120000000000005 53.7 0 0 0
1723 1 25.060000000000002 51.91 55.49 0 0 0
1724 2 26.85 50.120000000000005 55.49 0 0 0
1725 1 26.85 51.91 53.7 0 0 0
1755 2 26.85 53.7 30.43 0 0 0
1756 2 25.060000000000002 53.7 32.22 0 0 0
1757 2 25.060000000000002 55.49 34.00999999999999 0 0 0
1758 1 26.85 53.7 34.00999999999999 0 0 0
1759 1 26.85 55.49 32.22 0 0 0
1760 3 25.060000000000002 53.7 35.800000000000004 0 0 0
1761 2 25.060000000000002 55.49 37.59 0 0 0
1762 1 26.85 53.7 37.59 0 0 0
1763 3 26.85 55.49 35.800000000000004 0 0 0
1764 1 25.060000000000002 53.7 39.38 0 0 0
1765 1 25.060000000000002 55.49 41.17 0 0 0
1766 2 26.85 53.7 41.17 0 0 0
1767 3 26.85 55.49 39.38 0 0 0
1768 2 25.060000000000002 53.7 42.959999999999994 0 0 0
1769 3 25.060000000000002 55.49 44.75 0 0 0
1770 1 26.85 53.7 44.75 0 0 0
1771 3 26.85 55.49 42.959999999999994 0 0 0
1772 1 25.060000000000002 53.7 46.540000000000006 0 0 0
1773 1 25.060000000000002 55.49 48.33 0 0 0
1774 2 26.85 53.7 48.33 0 0 0
1775 3 26.85 55.49 46.540000000000006 0 0 0
1776 1 25.060000000000002 53.7 50.120000000000005 0 0 0
1777 1 25.060000000000002 55.49 51.91 0 0 0
1778 1 26.85 53.7 51.91 0 0 0
1779 3 26.85 55.49 50.120000000000005 0 0 0
1780 1 25.060000000000002 53.7 53.7 0 0 0
1781 3 25.060000000000002 55.49 55.49 0 0 0
1782 2 26.85 53.7 55.49 0 0 0
1783 2 26.85 55.49 53.7 0 0 0
2177 3 30.43 26.85 53.7 0 0 0
2180 1 28.639999999999997 30.43 48.33 0 0 0
2181 1 30.43 28.639999999999997 48.33 0 0 0
2182 1 30.43 30.43 46.540000000000006 0 0 0
2183 1 28.639999999999997 30.43 51.91 0 0 0
2184 1 30.43 28.639999999999997 51.91 0 0 0
2185 1 30.43 30.43 50.120000000000005 0 0 0
2186 2 28.639999999999997 28.639999999999997 53.7 0 0 0
2187 1 28.639999999999997 30.43 55.49 0 0 0
2188 1 30.43 28.639999999999997 55.49 0 0 0
2189 2 30.43 30.43 53.7 0 0 0
2202 1 30.43 34.00999999999999 35.800000000000004 0 0 0
2203 3 28.639999999999997 34.00999999999999 41.17 0 0 0
2204 3 30.43 32.22 41.17 0 0 0
2205 1 30.43 34.00999999999999 39.38 0 0 0
2206 3 28.639999999999997 34.00999999999999 44.75 0 0 0
2207 1 30.43 32.22 44.75 0 0 0
2208 3 30.43 34.00999999999999 42.959999999999994 0 0 0
2209 1 28.639999999999997 32.22 46.540000000000006 0 0 0
2210 2 28.639999999999997 34.00999999999999 48.33 0 0 0
2211 1 30.43 32.22 48.33 0 0 0
2212 3 30.43 34.00999999999999 46.540000000000006 0 0 0
2213 1 28.639999999999997 32.22 50.120000000000005 0 0 0
2214 1 28.639999999999997 34.00999999999999 51.91 0 0 0
2215 3 30.43 32.22 51.91 0 0 0
2216 2 30.43 34.00999999999999 50.120000000000005 0 0 0
2217 1 28.639999999999997 32.22 53.7 0 0 0
2218 3 28.639999999999997 34.00999999999999 55.49 0 0 0
2219 1 30.43 32.22 55.49 0 0 0
2220 1 30.43 34.00999999999999 53.7 0 0 0
2242 1 30.43 35.800000000000004 34.00999999999999 0 0 0
2243 3 28.639999999999997 35.800000000000004 35.800000000000004 0 0 0
2244 1 28.639999999999997 37.59 37.59 0 0 0
2245 1 30.43 35.800000000000004 37.59 0 0 0
2246 3 30.43 37.59 35.800000000000004 0 0 0
2247 1 28.639999999999997 35.800000000000004 39.38 0 0 0
2248 1 28.639999999999997 37.59 41.17 0 0 0
2249 3 30.43 35.800000000000004 41.17 0 0 0
2250 1 30.43 37.59 39.38 0 0 0
2251 3 28.639999999999997 35.800000000000004 42.959999999999994 0 0 0
2252 1 28.639999999999997 37.59 44.75 0 0 0
2253 1 30.43 35.800000000000004 44.75 0 0 0
2254 2 30.43 37.59 42.959999999999994 0 0 0
2255 1 28.639999999999997 35.800000000000004 46.540000000000006 0 0 0
2256 1 28.639999999999997 37.59 48.33 0 0 0
2257 3 30.43 35.800000000000004 48.33 0 0 0
2258 2 30.43 37.59 46.540000000000006 0 0 0
2259 1 28.639999999999997 35.800000000000004 50.120000000000005 0 0 0
2260 1 28.639999999999997 37.59 51.91 0 0 0
2261 3 30.43 35.800000000000004 51.91 0 0 0
2262 3 30.43 37.59 50.120000000000005 0 0 0
2263 3 28.639999999999997 35.800000000000004 53.7 0 0 0
2264 1 28.639999999999997 37.59 55.49 0 0 0
2265 1 30.43 35.800000000000004 55.49 0 0 0
2266 3 30.43 37.59 53.7 0 0 0
2294 2 28.639999999999997 41.17 34.00999999999999 0 0 0
2295 3 30.43 39.38 34.00999999999999 0 0 0
2296 3 30.43 41.17 32.22 0 0 0
2297 1 28.639999999999997 39.38 35.800000000000004 0 0 0
2298 3 28.639999999999997 41.17 37.59 0 0 0
2299 3 30.43 39.38 37.59 0 0 0
2300 2 30.43 41.17 35.800000000000004 0 0 0
2301 1 28.639999999999997 39.38 39.38 0 0 0
2302 1 28.639999999999997 41.17 41.17 0 0 0
2303 1 30.43 39.38 41.17 0 0 0
2304 2 30.43 41.17 39.38 0 0 0
2305 1 28.639999999999997 39.38 42.959999999999994 0 0 0
2306 2 28.639999999999997 41.17 44.75 0 0 0
2307 1 30.43 39.38 44.75 0 0 0
2308 2 30.43 41.17 42.959999999999994 0 0 0
2309 1 28.639999999999997 39.38 46.540000000000006 0 0 0
2310 2 28.639999999999997 41.17 48.33 0 0 0
2311 1 30.43 39.38 48.33 0 0 0
2312 2 30.43 41.17 46.540000000000006 0 0 0
2313 1 28.639999999999997 39.38 50.120000000000005 0 0 0
2314 1 28.639999999999997 41.17 51.91 0 0 0
2315 1 30.43 39.38 51.91 0 0 0
2316 2 30.43 41.17 50.120000000000005 0 0 0
2317 3 28.639999999999997 39.38 53.7 0 0 0
2318 1 28.639999999999997 41.17 55.49 0 0 0
2319 2 30.43 39.38 55.49 0 0 0
2320 1 30.43 41.17 53.7 0 0 0
2350 1 28.639999999999997 44.75 34.00999999999999 0 0 0
2351 1 30.43 42.959999999999994 34.00999999999999 0 0 0
2352 3 30.43 44.75 32.22 0 0 0
2353 1 28.639999999999997 42.959999999999994 35.800000000000004 0 0 0
2354 1 28.639999999999997 44.75 37.59 0 0 0
2355 3 30.43 42.959999999999994 37.59 0 0 0
2356 1 30.43 44.75 35.800000000000004 0 0 0
2357 2 28.639999999999997 42.959999999999994 39.38 0 0 0
2358 1 28.639999999999997 44.75 41.17 0 0 0
2359 2 30.43 42.959999999999994 41.17 0 0 0
2360 3 30.43 44.75 39.38 0 0 0
2361 1 28.639999999999997 42.959999999999994 42.959999999999994 0 0 0
2362 1 28.639999999999997 44.75 44.75 0 0 0
2363 1 30.43 42.959999999999994 44.75 0 0 0
2364 1 30.43 44.75 42.959999999999994 0 0 0
2365 2 28.639999999999997 42.959999999999994 46.540000000000006 0 0 0
2366 1 28.639999999999997 44.75 48.33 0 0 0
2367 2 30.43 42.959999999999994 48.33 0 0 0
2368 3 30.43 44.75 46.540000000000006 0 0 0
2369 2 28.639999999999997 42.959999999999994 50.120000000000005 0 0 0
2370 1 28.639999999999997 44.75 51.91 0 0 0
2371 3 30.43 42.959999999999994 51.91 0 0 0
2372 1 30.43 44.75 50.120000000000005 0 0 0
2373 1 28.639999999999997 42.959999999999994 53.7 0 0 0
2374 3 28.639999999999997 44.75 55.49 0 0 0
2375 2 30.43 42.959999999999994 55.49 0 0 0
2376 3 30.43 44.75 53.7 0 0 0
2406 3 28.639999999999997 48.33 30.43 0 0 0
2407 2 30.43 46.540000000000006 30.43 0 0 0
2408 2 30.43 48.33 28.639999999999997 0 0 0
2409 1 28.639999999999997 46.540000000000006 32.22 0 0 0
2410 1 28.639999999999997 48.33 34.00999999999999 0 0 0
2411 3 30.43 46.540000000000006 34.00999999999999 0 0 0
2412 1 30.43 48.33 32.22 0 0 0
2413 1 28.639999999999997 46.540000000000006 35.800000000000004 0 0 0
2414 1 28.639999999999997 48.33 37.59 0 0 0
2415 1 30.43 46.540000000000006 37.59 0 0 0
2416 1 30.43 48.33 35.800000000000004 0 0 0
2417 1 28.639999999999997 46.540000000000006 39.38 0 0 0
2418 2 28.639999999999997 48.33 41.17 0 0 0
2419 1 30.43 46.540000000000006 41.17 0 0 0
2420 2 30.43 48.33 39.38 0 0 0
2421 1 28.639999999999997 46.540000000000006 42.959999999999994 0 0 0
2422 1 28.639999999999997 48.33 44.75 0 0 0
2423 2 30.43 46.540000000000006 44.75 0 0 0
2424 2 30.43 48.33 42.959999999999994 0 0 0
2425 1 28.639999999999997 46.540000000000006 46.540000000000006 0 0 0
2426 2 28.639999999999997 48.33 48.33 0 0 0
2427 1 30.43 46.540000000000006 48.33 0 0 0
2428 2 30.43 48.33 46.540000000000006 0 0 0
2429 1 28.639999999999997 46.540000000000006 50.120000000000005 0 0 0
2430 1 28.639999999999997 48.33 51.91 0 0 0
2431 1 30.43 46.540000000000006 51.91 0 0 0
2432 3 30.43 48.33 50.120000000000005 0 0 0
2433 3 28.639999999999997 46.540000000000006 53.7 0 0 0
2434 1 28.639999999999997 48.33 55.49 0 0 0
2435 1 30.43 46.540000000000006 55.49 0 0 0
2436 1 30.43 48.33 53.7 0 0 0
2470 3 28.639999999999997 51.91 30.43 0 0 0
2471 2 30.43 50.120000000000005 30.43 0 0 0
2472 3 30.43 51.91 28.639999999999997 0 0 0
2473 1 28.639999999999997 50.120000000000005 32.22 0 0 0
2474 2 28.639999999999997 51.91 34.00999999999999 0 0 0
2475 1 30.43 50.120000000000005 34.00999999999999 0 0 0
2476 1 30.43 51.91 32.22 0 0 0
2477 1 28.639999999999997 50.120000000000005 35.800000000000004 0 0 0
2478 1 28.639999999999997 51.91 37.59 0 0 0
2479 1 30.43 50.120000000000005 37.59 0 0 0
2480 3 30.43 51.91 35.800000000000004 0 0 0
2481 1 28.639999999999997 50.120000000000005 39.38 0 0 0
2482 1 28.639999999999997 51.91 41.17 0 0 0
2483 3 30.43 50.120000000000005 41.17 0 0 0
2484 1 30.43 51.91 39.38 0 0 0
2485 1 28.639999999999997 50.120000000000005 42.959999999999994 0 0 0
2486 1 28.639999999999997 51.91 44.75 0 0 0
2487 3 30.43 50.120000000000005 44.75 0 0 0
2488 2 30.43 51.91 42.959999999999994 0 0 0
2489 3 28.639999999999997 50.120000000000005 46.540000000000006 0 0 0
2490 3 28.639999999999997 51.91 48.33 0 0 0
2491 1 30.43 50.120000000000005 48.33 0 0 0
2492 3 30.43 51.91 46.540000000000006 0 0 0
2493 3 28.639999999999997 50.120000000000005 50.120000000000005 0 0 0
2494 1 28.639999999999997 51.91 51.91 0 0 0
2495 2 30.43 50.120000000000005 51.91 0 0 0
2496 1 30.43 51.91 50.120000000000005 0 0 0
2497 1 28.639999999999997 50.120000000000005 53.7 0 0 0