model_files/PtNi/PtNi_30000/PtNi_553/PtNi_553_fcc_29881_temp.data (written by ASE) 

29881 	 atoms 
2  atom types
0.0                     122  xlo xhi
0.0                     122  ylo yhi
0.0                     122  zlo zhi


Atoms 

     1   1                       0      59.365000000000002      59.365000000000002
     2   1      1.9149999999999994      57.450000000000003      59.365000000000002
     3   1      1.9149999999999994      59.365000000000002      57.450000000000003
     4   1                       0      59.365000000000002      63.195000000000014
     5   1      1.9149999999999994      57.450000000000003      63.195000000000014
     6   1      1.9149999999999994      59.365000000000002      61.280000000000008
     7   1      1.9149999999999994      59.365000000000002      65.109999999999999
     8   1                       0      63.195000000000014      59.365000000000002
     9   1      1.9149999999999994      61.280000000000008      59.365000000000002
    10   1      1.9149999999999994      63.195000000000014      57.450000000000003
    11   1                       0      61.280000000000008      61.280000000000008
    12   1                       0      63.195000000000014      63.195000000000014
    13   1      1.9149999999999994      61.280000000000008      63.195000000000014
    14   1      1.9149999999999994      63.195000000000014      61.280000000000008
    15   1      1.9149999999999994      63.195000000000014      65.109999999999999
    16   1      1.9149999999999994      65.109999999999999      59.365000000000002
    17   1      1.9149999999999994      65.109999999999999      63.195000000000014
    18   1      3.8299999999999987      55.535000000000011      59.365000000000002
    19   1      5.7450000000000045      53.620000000000005      59.365000000000002
    20   1      5.7450000000000045      55.535000000000011      57.450000000000003
    21   1      3.8299999999999987      55.535000000000011      63.195000000000014
    22   1      5.7450000000000045      53.620000000000005      63.195000000000014
    23   1      5.7450000000000045      55.535000000000011      61.280000000000008
    24   1      5.7450000000000045      55.535000000000011      65.109999999999999
    25   1      3.8299999999999987      59.365000000000002      55.535000000000011
    26   1      5.7450000000000045      57.450000000000003      55.535000000000011
    27   1      5.7450000000000045      59.365000000000002      53.620000000000005
    28   1      3.8299999999999987      57.450000000000003      57.450000000000003
    29   1      3.8299999999999987      59.365000000000002      59.365000000000002
    30   1      5.7450000000000045      57.450000000000003      59.365000000000002
    31   1      5.7450000000000045      59.365000000000002      57.450000000000003
    32   1      3.8299999999999987      57.450000000000003      61.280000000000008
    33   1      3.8299999999999987      59.365000000000002      63.195000000000014
    34   1      5.7450000000000045      57.450000000000003      63.195000000000014
    35   1      5.7450000000000045      59.365000000000002      61.280000000000008
    36   1      3.8299999999999987      57.450000000000003      65.109999999999999
    37   1      3.8299999999999987      59.365000000000002      67.025000000000006
    38   1      5.7450000000000045      57.450000000000003      67.025000000000006
    39   1      5.7450000000000045      59.365000000000002      65.109999999999999
    40   1      5.7450000000000045      59.365000000000002      68.939999999999998
    41   1      3.8299999999999987      63.195000000000014      55.535000000000011
    42   1      5.7450000000000045      61.280000000000008      55.535000000000011
    43   1      5.7450000000000045      63.195000000000014      53.620000000000005
    44   1      3.8299999999999987      61.280000000000008      57.450000000000003
    45   1      3.8299999999999987      63.195000000000014      59.365000000000002
    46   1      5.7450000000000045      61.280000000000008      59.365000000000002
    47   1      5.7450000000000045      63.195000000000014      57.450000000000003
    48   1      3.8299999999999987      61.280000000000008      61.280000000000008
    49   1      3.8299999999999987      63.195000000000014      63.195000000000014
    50   1      5.7450000000000045      61.280000000000008      63.195000000000014
    51   1      5.7450000000000045      63.195000000000014      61.280000000000008
    52   1      3.8299999999999987      61.280000000000008      65.109999999999999
    53   1      3.8299999999999987      63.195000000000014      67.025000000000006
    54   1      5.7450000000000045      61.280000000000008      67.025000000000006
    55   1      5.7450000000000045      63.195000000000014      65.109999999999999
    56   1      5.7450000000000045      63.195000000000014      68.939999999999998
    57   1      5.7450000000000045      65.109999999999999      55.535000000000011
    58   1      3.8299999999999987      65.109999999999999      57.450000000000003
    59   1      3.8299999999999987      67.025000000000006      59.365000000000002
    60   1      5.7450000000000045      65.109999999999999      59.365000000000002
    61   1      5.7450000000000045      67.025000000000006      57.450000000000003
    62   1      3.8299999999999987      65.109999999999999      61.280000000000008
    63   1      3.8299999999999987      67.025000000000006      63.195000000000014
    64   1      5.7450000000000045      65.109999999999999      63.195000000000014
    65   1      5.7450000000000045      67.025000000000006      61.280000000000008
    66   1      3.8299999999999987      65.109999999999999      65.109999999999999
    67   1      5.7450000000000045      65.109999999999999      67.025000000000006
    68   1      5.7450000000000045      67.025000000000006      65.109999999999999
    69   1      5.7450000000000045      68.939999999999998      59.365000000000002
    70   1      5.7450000000000045      68.939999999999998      63.195000000000014
    71   1      7.6600000000000046      51.705000000000013      59.365000000000002
    72   1      9.5750000000000028      49.790000000000006      59.365000000000002
    73   1      9.5750000000000028      51.705000000000013      57.450000000000003
    74   1      7.6600000000000046      51.705000000000013      63.195000000000014
    75   1      9.5750000000000028      49.790000000000006      63.195000000000014
    76   1      9.5750000000000028      51.705000000000013      61.280000000000008
    77   1      9.5750000000000028      51.705000000000013      65.109999999999999
    78   1      7.6600000000000046      55.535000000000011      55.535000000000011
    79   1      9.5750000000000028      53.620000000000005      55.535000000000011
    80   1      9.5750000000000028      55.535000000000011      53.620000000000005
    81   1      7.6600000000000046      53.620000000000005      57.450000000000003
    82   1      7.6600000000000046      55.535000000000011      59.365000000000002
    83   1      9.5750000000000028      53.620000000000005      59.365000000000002
    84   1      9.5750000000000028      55.535000000000011      57.450000000000003
    85   1      7.6600000000000046      53.620000000000005      61.280000000000008
    86   1      7.6600000000000046      55.535000000000011      63.195000000000014
    87   1      9.5750000000000028      53.620000000000005      63.195000000000014
    88   1      9.5750000000000028      55.535000000000011      61.280000000000008
    89   1      7.6600000000000046      53.620000000000005      65.109999999999999
    90   1      7.6600000000000046      55.535000000000011      67.025000000000006
    91   1      9.5750000000000028      53.620000000000005      67.025000000000006
    92   1      9.5750000000000028      55.535000000000011      65.109999999999999
    93   1      9.5750000000000028      55.535000000000011      68.939999999999998
    94   1      7.6600000000000046      59.365000000000002      51.705000000000013
    95   1      9.5750000000000028      57.450000000000003      51.705000000000013
    96   1      9.5750000000000028      59.365000000000002      49.790000000000006
    97   1      7.6600000000000046      57.450000000000003      53.620000000000005
    98   1      7.6600000000000046      59.365000000000002      55.535000000000011
    99   1      9.5750000000000028      57.450000000000003      55.535000000000011
   100   1      9.5750000000000028      59.365000000000002      53.620000000000005
   101   1      7.6600000000000046      57.450000000000003      57.450000000000003
   102   1      7.6600000000000046      59.365000000000002      59.365000000000002
   103   1      9.5750000000000028      57.450000000000003      59.365000000000002
   104   1      9.5750000000000028      59.365000000000002      57.450000000000003
   105   1      7.6600000000000046      57.450000000000003      61.280000000000008
   106   1      7.6600000000000046      59.365000000000002      63.195000000000014
   107   1      9.5750000000000028      57.450000000000003      63.195000000000014
   108   1      9.5750000000000028      59.365000000000002      61.280000000000008
   109   1      7.6600000000000046      57.450000000000003      65.109999999999999
   110   1      7.6600000000000046      59.365000000000002      67.025000000000006
   111   1      9.5750000000000028      57.450000000000003      67.025000000000006
   112   1      9.5750000000000028      59.365000000000002      65.109999999999999
   113   1      7.6600000000000046      57.450000000000003      68.939999999999998
   114   1      7.6600000000000046      59.365000000000002      70.855000000000004
   115   1      9.5750000000000028      57.450000000000003      70.855000000000004
   116   1      9.5750000000000028      59.365000000000002      68.939999999999998
   117   1      9.5750000000000028      59.365000000000002       72.77000000000001
   118   1      7.6600000000000046      63.195000000000014      51.705000000000013
   119   1      9.5750000000000028      61.280000000000008      51.705000000000013
   120   1      9.5750000000000028      63.195000000000014      49.790000000000006
   121   1      7.6600000000000046      61.280000000000008      53.620000000000005
   122   1      7.6600000000000046      63.195000000000014      55.535000000000011
   123   1      9.5750000000000028      61.280000000000008      55.535000000000011
   124   1      9.5750000000000028      63.195000000000014      53.620000000000005
   125   1      7.6600000000000046      61.280000000000008      57.450000000000003
   126   1      7.6600000000000046      63.195000000000014      59.365000000000002
   127   1      9.5750000000000028      61.280000000000008      59.365000000000002
   128   1      9.5750000000000028      63.195000000000014      57.450000000000003
   129   1      7.6600000000000046      61.280000000000008      61.280000000000008
   130   1      7.6600000000000046      63.195000000000014      63.195000000000014
   131   1      9.5750000000000028      61.280000000000008      63.195000000000014
   132   1      9.5750000000000028      63.195000000000014      61.280000000000008
   133   1      7.6600000000000046      61.280000000000008      65.109999999999999
   134   1      7.6600000000000046      63.195000000000014      67.025000000000006
   135   1      9.5750000000000028      61.280000000000008      67.025000000000006
   136   1      9.5750000000000028      63.195000000000014      65.109999999999999
   137   1      7.6600000000000046      61.280000000000008      68.939999999999998
   138   1      7.6600000000000046      63.195000000000014      70.855000000000004
   139   1      9.5750000000000028      61.280000000000008      70.855000000000004
   140   1      9.5750000000000028      63.195000000000014      68.939999999999998
   141   1      9.5750000000000028      63.195000000000014       72.77000000000001
   142   1      9.5750000000000028      65.109999999999999      51.705000000000013
   143   1      7.6600000000000046      65.109999999999999      53.620000000000005
   144   1      7.6600000000000046      67.025000000000006      55.535000000000011
   145   1      9.5750000000000028      65.109999999999999      55.535000000000011
   146   1      9.5750000000000028      67.025000000000006      53.620000000000005
   147   1      7.6600000000000046      65.109999999999999      57.450000000000003
   148   1      7.6600000000000046      67.025000000000006      59.365000000000002
   149   1      9.5750000000000028      65.109999999999999      59.365000000000002
   150   1      9.5750000000000028      67.025000000000006      57.450000000000003
   151   1      7.6600000000000046      65.109999999999999      61.280000000000008
   152   1      7.6600000000000046      67.025000000000006      63.195000000000014
   153   1      9.5750000000000028      65.109999999999999      63.195000000000014
   154   1      9.5750000000000028      67.025000000000006      61.280000000000008
   155   1      7.6600000000000046      65.109999999999999      65.109999999999999
   156   1      7.6600000000000046      67.025000000000006      67.025000000000006
   157   1      9.5750000000000028      65.109999999999999      67.025000000000006
   158   1      9.5750000000000028      67.025000000000006      65.109999999999999
   159   1      7.6600000000000046      65.109999999999999      68.939999999999998
   160   1      9.5750000000000028      65.109999999999999      70.855000000000004
   161   1      9.5750000000000028      67.025000000000006      68.939999999999998
   162   1      9.5750000000000028      68.939999999999998      55.535000000000011
   163   1      7.6600000000000046      68.939999999999998      57.450000000000003
   164   1      7.6600000000000046      70.855000000000004      59.365000000000002
   165   1      9.5750000000000028      68.939999999999998      59.365000000000002
   166   1      9.5750000000000028      70.855000000000004      57.450000000000003
   167   1      7.6600000000000046      68.939999999999998      61.280000000000008
   168   1      7.6600000000000046      70.855000000000004      63.195000000000014
   169   1      9.5750000000000028      68.939999999999998      63.195000000000014
   170   1      9.5750000000000028      70.855000000000004      61.280000000000008
   171   1      7.6600000000000046      68.939999999999998      65.109999999999999
   172   1      9.5750000000000028      68.939999999999998      67.025000000000006
   173   1      9.5750000000000028      70.855000000000004      65.109999999999999
   174   1      9.5750000000000028       72.77000000000001      59.365000000000002
   175   1      9.5750000000000028       72.77000000000001      63.195000000000014
   176   1      11.490000000000004                  47.875      59.365000000000002
   177   1      13.405000000000001      45.960000000000008      59.365000000000002
   178   1      13.405000000000001                  47.875      57.450000000000003
   179   1      11.490000000000004                  47.875      63.195000000000014
   180   1      13.405000000000001      45.960000000000008      63.195000000000014
   181   1      13.405000000000001                  47.875      61.280000000000008
   182   1      13.405000000000001                  47.875      65.109999999999999
   183   1      11.490000000000004      51.705000000000013      55.535000000000011
   184   1      13.405000000000001      49.790000000000006      55.535000000000011
   185   1      13.405000000000001      51.705000000000013      53.620000000000005
   186   1      11.490000000000004      49.790000000000006      57.450000000000003
   187   1      11.490000000000004      51.705000000000013      59.365000000000002
   188   1      13.405000000000001      49.790000000000006      59.365000000000002
   189   1      13.405000000000001      51.705000000000013      57.450000000000003
   190   1      11.490000000000004      49.790000000000006      61.280000000000008
   191   1      11.490000000000004      51.705000000000013      63.195000000000014
   192   1      13.405000000000001      49.790000000000006      63.195000000000014
   193   1      13.405000000000001      51.705000000000013      61.280000000000008
   194   1      11.490000000000004      49.790000000000006      65.109999999999999
   195   1      11.490000000000004      51.705000000000013      67.025000000000006
   196   1      13.405000000000001      49.790000000000006      67.025000000000006
   197   1      13.405000000000001      51.705000000000013      65.109999999999999
   198   1      13.405000000000001      51.705000000000013      68.939999999999998
   199   1      11.490000000000004      55.535000000000011      51.705000000000013
   200   1      13.405000000000001      53.620000000000005      51.705000000000013
   201   1      13.405000000000001      55.535000000000011      49.790000000000006
   202   1      11.490000000000004      53.620000000000005      53.620000000000005
   203   1      11.490000000000004      55.535000000000011      55.535000000000011
   204   1      13.405000000000001      53.620000000000005      55.535000000000011
   205   1      13.405000000000001      55.535000000000011      53.620000000000005
   206   1      11.490000000000004      53.620000000000005      57.450000000000003
   207   1      11.490000000000004      55.535000000000011      59.365000000000002
   208   1      13.405000000000001      53.620000000000005      59.365000000000002
   209   1      13.405000000000001      55.535000000000011      57.450000000000003
   210   1      11.490000000000004      53.620000000000005      61.280000000000008
   211   1      11.490000000000004      55.535000000000011      63.195000000000014
   212   1      13.405000000000001      53.620000000000005      63.195000000000014
   213   1      13.405000000000001      55.535000000000011      61.280000000000008
   214   1      11.490000000000004      53.620000000000005      65.109999999999999
   215   1      11.490000000000004      55.535000000000011      67.025000000000006
   216   1      13.405000000000001      53.620000000000005      67.025000000000006
   217   1      13.405000000000001      55.535000000000011      65.109999999999999
   218   1      11.490000000000004      53.620000000000005      68.939999999999998
   219   1      11.490000000000004      55.535000000000011      70.855000000000004
   220   1      13.405000000000001      53.620000000000005      70.855000000000004
   221   1      13.405000000000001      55.535000000000011      68.939999999999998
   222   1      13.405000000000001      55.535000000000011       72.77000000000001
   223   1      11.490000000000004      59.365000000000002                  47.875
   224   1      13.405000000000001      57.450000000000003                  47.875
   225   1      13.405000000000001      59.365000000000002      45.960000000000008
   226   1      11.490000000000004      57.450000000000003      49.790000000000006
   227   1      11.490000000000004      59.365000000000002      51.705000000000013
   228   1      13.405000000000001      57.450000000000003      51.705000000000013
   229   1      13.405000000000001      59.365000000000002      49.790000000000006
   230   1      11.490000000000004      57.450000000000003      53.620000000000005
   231   1      11.490000000000004      59.365000000000002      55.535000000000011
   232   1      13.405000000000001      57.450000000000003      55.535000000000011
   233   1      13.405000000000001      59.365000000000002      53.620000000000005
   234   1      11.490000000000004      57.450000000000003      57.450000000000003
   235   1      11.490000000000004      59.365000000000002      59.365000000000002
   236   1      13.405000000000001      57.450000000000003      59.365000000000002
   237   1      13.405000000000001      59.365000000000002      57.450000000000003
   238   1      11.490000000000004      57.450000000000003      61.280000000000008
   239   1      11.490000000000004      59.365000000000002      63.195000000000014
   240   1      13.405000000000001      57.450000000000003      63.195000000000014
   241   1      13.405000000000001      59.365000000000002      61.280000000000008
   242   1      11.490000000000004      57.450000000000003      65.109999999999999
   243   1      11.490000000000004      59.365000000000002      67.025000000000006
   244   1      13.405000000000001      57.450000000000003      67.025000000000006
   245   1      13.405000000000001      59.365000000000002      65.109999999999999
   246   1      11.490000000000004      57.450000000000003      68.939999999999998
   247   1      11.490000000000004      59.365000000000002      70.855000000000004
   248   1      13.405000000000001      57.450000000000003      70.855000000000004
   249   1      13.405000000000001      59.365000000000002      68.939999999999998
   250   1      11.490000000000004      57.450000000000003       72.77000000000001
   251   1      11.490000000000004      59.365000000000002      74.685000000000002
   252   1      13.405000000000001      57.450000000000003      74.685000000000002
   253   1      13.405000000000001      59.365000000000002       72.77000000000001
   254   1      13.405000000000001      59.365000000000002      76.600000000000009
   255   1      11.490000000000004      63.195000000000014                  47.875
   256   1      13.405000000000001      61.280000000000008                  47.875
   257   1      13.405000000000001      63.195000000000014      45.960000000000008
   258   1      11.490000000000004      61.280000000000008      49.790000000000006
   259   1      11.490000000000004      63.195000000000014      51.705000000000013
   260   1      13.405000000000001      61.280000000000008      51.705000000000013
   261   1      13.405000000000001      63.195000000000014      49.790000000000006
   262   1      11.490000000000004      61.280000000000008      53.620000000000005
   263   1      11.490000000000004      63.195000000000014      55.535000000000011
   264   1      13.405000000000001      61.280000000000008      55.535000000000011
   265   1      13.405000000000001      63.195000000000014      53.620000000000005
   266   1      11.490000000000004      61.280000000000008      57.450000000000003
   267   1      11.490000000000004      63.195000000000014      59.365000000000002
   268   1      13.405000000000001      61.280000000000008      59.365000000000002
   269   1      13.405000000000001      63.195000000000014      57.450000000000003
   270   1      11.490000000000004      61.280000000000008      61.280000000000008
   271   1      11.490000000000004      63.195000000000014      63.195000000000014
   272   1      13.405000000000001      61.280000000000008      63.195000000000014
   273   1      13.405000000000001      63.195000000000014      61.280000000000008
   274   1      11.490000000000004      61.280000000000008      65.109999999999999
   275   1      11.490000000000004      63.195000000000014      67.025000000000006
   276   1      13.405000000000001      61.280000000000008      67.025000000000006
   277   1      13.405000000000001      63.195000000000014      65.109999999999999
   278   1      11.490000000000004      61.280000000000008      68.939999999999998
   279   1      11.490000000000004      63.195000000000014      70.855000000000004
   280   1      13.405000000000001      61.280000000000008      70.855000000000004
   281   1      13.405000000000001      63.195000000000014      68.939999999999998
   282   1      11.490000000000004      61.280000000000008       72.77000000000001
   283   1      11.490000000000004      63.195000000000014      74.685000000000002
   284   1      13.405000000000001      61.280000000000008      74.685000000000002
   285   1      13.405000000000001      63.195000000000014       72.77000000000001
   286   1      13.405000000000001      63.195000000000014      76.600000000000009
   287   1      13.405000000000001      65.109999999999999                  47.875
   288   1      11.490000000000004      65.109999999999999      49.790000000000006
   289   1      11.490000000000004      67.025000000000006      51.705000000000013
   290   1      13.405000000000001      65.109999999999999      51.705000000000013
   291   1      13.405000000000001      67.025000000000006      49.790000000000006
   292   1      11.490000000000004      65.109999999999999      53.620000000000005
   293   1      11.490000000000004      67.025000000000006      55.535000000000011
   294   1      13.405000000000001      65.109999999999999      55.535000000000011
   295   1      13.405000000000001      67.025000000000006      53.620000000000005
   296   1      11.490000000000004      65.109999999999999      57.450000000000003
   297   1      11.490000000000004      67.025000000000006      59.365000000000002
   298   1      13.405000000000001      65.109999999999999      59.365000000000002
   299   1      13.405000000000001      67.025000000000006      57.450000000000003
   300   1      11.490000000000004      65.109999999999999      61.280000000000008
   301   1      11.490000000000004      67.025000000000006      63.195000000000014
   302   1      13.405000000000001      65.109999999999999      63.195000000000014
   303   1      13.405000000000001      67.025000000000006      61.280000000000008
   304   1      11.490000000000004      65.109999999999999      65.109999999999999
   305   1      11.490000000000004      67.025000000000006      67.025000000000006
   306   1      13.405000000000001      65.109999999999999      67.025000000000006
   307   1      13.405000000000001      67.025000000000006      65.109999999999999
   308   1      11.490000000000004      65.109999999999999      68.939999999999998
   309   1      11.490000000000004      67.025000000000006      70.855000000000004
   310   1      13.405000000000001      65.109999999999999      70.855000000000004
   311   1      13.405000000000001      67.025000000000006      68.939999999999998
   312   1      11.490000000000004      65.109999999999999       72.77000000000001
   313   1      13.405000000000001      65.109999999999999      74.685000000000002
   314   1      13.405000000000001      67.025000000000006       72.77000000000001
   315   1      13.405000000000001      68.939999999999998      51.705000000000013
   316   1      11.490000000000004      68.939999999999998      53.620000000000005
   317   1      11.490000000000004      70.855000000000004      55.535000000000011
   318   1      13.405000000000001      68.939999999999998      55.535000000000011
   319   1      13.405000000000001      70.855000000000004      53.620000000000005
   320   1      11.490000000000004      68.939999999999998      57.450000000000003
   321   1      11.490000000000004      70.855000000000004      59.365000000000002
   322   1      13.405000000000001      68.939999999999998      59.365000000000002
   323   1      13.405000000000001      70.855000000000004      57.450000000000003
   324   1      11.490000000000004      68.939999999999998      61.280000000000008
   325   1      11.490000000000004      70.855000000000004      63.195000000000014
   326   1      13.405000000000001      68.939999999999998      63.195000000000014
   327   1      13.405000000000001      70.855000000000004      61.280000000000008
   328   1      11.490000000000004      68.939999999999998      65.109999999999999
   329   1      11.490000000000004      70.855000000000004      67.025000000000006
   330   1      13.405000000000001      68.939999999999998      67.025000000000006
   331   1      13.405000000000001      70.855000000000004      65.109999999999999
   332   1      11.490000000000004      68.939999999999998      68.939999999999998
   333   1      13.405000000000001      68.939999999999998      70.855000000000004
   334   1      13.405000000000001      70.855000000000004      68.939999999999998
   335   1      13.405000000000001       72.77000000000001      55.535000000000011
   336   1      11.490000000000004       72.77000000000001      57.450000000000003
   337   1      11.490000000000004      74.685000000000002      59.365000000000002
   338   1      13.405000000000001       72.77000000000001      59.365000000000002
   339   1      13.405000000000001      74.685000000000002      57.450000000000003
   340   1      11.490000000000004       72.77000000000001      61.280000000000008
   341   1      11.490000000000004      74.685000000000002      63.195000000000014
   342   1      13.405000000000001       72.77000000000001      63.195000000000014
   343   1      13.405000000000001      74.685000000000002      61.280000000000008
   344   1      11.490000000000004       72.77000000000001      65.109999999999999
   345   1      13.405000000000001       72.77000000000001      67.025000000000006
   346   1      13.405000000000001      74.685000000000002      65.109999999999999
   347   1      13.405000000000001      76.600000000000009      59.365000000000002
   348   1      13.405000000000001      76.600000000000009      63.195000000000014
   349   1      15.320000000000002      44.045000000000002      59.365000000000002
   350   1      17.234999999999999      42.130000000000003      59.365000000000002
   351   1      17.234999999999999      44.045000000000002      57.450000000000003
   352   1      15.320000000000002      44.045000000000002      63.195000000000014
   353   1      17.234999999999999      42.130000000000003      63.195000000000014
   354   1      17.234999999999999      44.045000000000002      61.280000000000008
   355   1      17.234999999999999      44.045000000000002      65.109999999999999
   356   1      17.234999999999999                  47.875      49.790000000000006
   357   1      15.320000000000002                  47.875      55.535000000000011
   358   1      17.234999999999999      45.960000000000008      55.535000000000011