model_files/Pt/Pt_3000/Pt_100/data.Pt_100_fcc_3429 (written by ASE) 

3429 	 atoms 
1  atom types
0.0                      37  xlo xhi
0.0                      37  ylo yhi
0.0                      37  zlo zhi


Atoms 

     1   1                       0                       0      1.9599999999999993
     2   1                       0                       0      5.8799999999999999
     3   1                       0                       0      9.7999999999999989
     4   1                       0                       0      13.719999999999999
     5   1                       0                       0      17.640000000000001
     6   1                       0                       0      21.560000000000002
     7   1                       0                       0      25.479999999999997
     8   1                       0                       0      29.399999999999999
     9   1                       0                       0                   33.32
    10   1                       0      1.9599999999999993                       0
    11   1                       0      1.9599999999999993      3.9199999999999986
    12   1                       0      3.9199999999999986      1.9599999999999993
    13   1                       0      1.9599999999999993      7.8399999999999999
    14   1                       0      3.9199999999999986      5.8799999999999999
    15   1                       0      1.9599999999999993                   11.76
    16   1                       0      3.9199999999999986      9.7999999999999989
    17   1                       0      1.9599999999999993                   15.68
    18   1                       0      3.9199999999999986      13.719999999999999
    19   1                       0      1.9599999999999993      19.600000000000001
    20   1                       0      3.9199999999999986      17.640000000000001
    21   1                       0      1.9599999999999993      23.520000000000003
    22   1                       0      3.9199999999999986      21.560000000000002
    23   1                       0      1.9599999999999993      27.439999999999998
    24   1                       0      3.9199999999999986      25.479999999999997
    25   1                       0      1.9599999999999993      31.359999999999999
    26   1                       0      3.9199999999999986      29.399999999999999
    27   1                       0      1.9599999999999993      35.280000000000001
    28   1                       0      3.9199999999999986                   33.32
    29   1                       0      5.8799999999999999                       0
    30   1                       0      5.8799999999999999      3.9199999999999986
    31   1                       0      7.8399999999999999      1.9599999999999993
    32   1                       0      5.8799999999999999      7.8399999999999999
    33   1                       0      7.8399999999999999      5.8799999999999999
    34   1                       0      5.8799999999999999                   11.76
    35   1                       0      7.8399999999999999      9.7999999999999989
    36   1                       0      5.8799999999999999                   15.68
    37   1                       0      7.8399999999999999      13.719999999999999
    38   1                       0      5.8799999999999999      19.600000000000001
    39   1                       0      7.8399999999999999      17.640000000000001
    40   1                       0      5.8799999999999999      23.520000000000003
    41   1                       0      7.8399999999999999      21.560000000000002
    42   1                       0      5.8799999999999999      27.439999999999998
    43   1                       0      7.8399999999999999      25.479999999999997
    44   1                       0      5.8799999999999999      31.359999999999999
    45   1                       0      7.8399999999999999      29.399999999999999
    46   1                       0      5.8799999999999999      35.280000000000001
    47   1                       0      7.8399999999999999                   33.32
    48   1                       0      9.7999999999999989                       0
    49   1                       0      9.7999999999999989      3.9199999999999986
    50   1                       0                   11.76      1.9599999999999993
    51   1                       0      9.7999999999999989      7.8399999999999999
    52   1                       0                   11.76      5.8799999999999999
    53   1                       0      9.7999999999999989                   11.76
    54   1                       0                   11.76      9.7999999999999989
    55   1                       0      9.7999999999999989                   15.68
    56   1                       0                   11.76      13.719999999999999
    57   1                       0      9.7999999999999989      19.600000000000001
    58   1                       0                   11.76      17.640000000000001
    59   1                       0      9.7999999999999989      23.520000000000003
    60   1                       0                   11.76      21.560000000000002
    61   1                       0      9.7999999999999989      27.439999999999998
    62   1                       0                   11.76      25.479999999999997
    63   1                       0      9.7999999999999989      31.359999999999999
    64   1                       0                   11.76      29.399999999999999
    65   1                       0      9.7999999999999989      35.280000000000001
    66   1                       0                   11.76                   33.32
    67   1                       0      13.719999999999999                       0
    68   1                       0      13.719999999999999      3.9199999999999986
    69   1                       0                   15.68      1.9599999999999993
    70   1                       0      13.719999999999999      7.8399999999999999
    71   1                       0                   15.68      5.8799999999999999
    72   1                       0      13.719999999999999                   11.76
    73   1                       0                   15.68      9.7999999999999989
    74   1                       0      13.719999999999999                   15.68
    75   1                       0                   15.68      13.719999999999999
    76   1                       0      13.719999999999999      19.600000000000001
    77   1                       0                   15.68      17.640000000000001
    78   1                       0      13.719999999999999      23.520000000000003
    79   1                       0                   15.68      21.560000000000002
    80   1                       0      13.719999999999999      27.439999999999998
    81   1                       0                   15.68      25.479999999999997
    82   1                       0      13.719999999999999      31.359999999999999
    83   1                       0                   15.68      29.399999999999999
    84   1                       0      13.719999999999999      35.280000000000001
    85   1                       0                   15.68                   33.32
    86   1                       0      17.640000000000001                       0
    87   1                       0      17.640000000000001      3.9199999999999986
    88   1                       0      19.600000000000001      1.9599999999999993
    89   1                       0      17.640000000000001      7.8399999999999999
    90   1                       0      19.600000000000001      5.8799999999999999
    91   1                       0      17.640000000000001                   11.76
    92   1                       0      19.600000000000001      9.7999999999999989
    93   1                       0      17.640000000000001                   15.68
    94   1                       0      19.600000000000001      13.719999999999999
    95   1                       0      17.640000000000001      19.600000000000001
    96   1                       0      19.600000000000001      17.640000000000001
    97   1                       0      17.640000000000001      23.520000000000003
    98   1                       0      19.600000000000001      21.560000000000002
    99   1                       0      17.640000000000001      27.439999999999998
   100   1                       0      19.600000000000001      25.479999999999997
   101   1                       0      17.640000000000001      31.359999999999999
   102   1                       0      19.600000000000001      29.399999999999999
   103   1                       0      17.640000000000001      35.280000000000001
   104   1                       0      19.600000000000001                   33.32
   105   1                       0      21.560000000000002                       0
   106   1                       0      21.560000000000002      3.9199999999999986
   107   1                       0      23.520000000000003      1.9599999999999993
   108   1                       0      21.560000000000002      7.8399999999999999
   109   1                       0      23.520000000000003      5.8799999999999999
   110   1                       0      21.560000000000002                   11.76
   111   1                       0      23.520000000000003      9.7999999999999989
   112   1                       0      21.560000000000002                   15.68
   113   1                       0      23.520000000000003      13.719999999999999
   114   1                       0      21.560000000000002      19.600000000000001
   115   1                       0      23.520000000000003      17.640000000000001
   116   1                       0      21.560000000000002      23.520000000000003
   117   1                       0      23.520000000000003      21.560000000000002
   118   1                       0      21.560000000000002      27.439999999999998
   119   1                       0      23.520000000000003      25.479999999999997
   120   1                       0      21.560000000000002      31.359999999999999
   121   1                       0      23.520000000000003      29.399999999999999
   122   1                       0      21.560000000000002      35.280000000000001
   123   1                       0      23.520000000000003                   33.32
   124   1                       0      25.479999999999997                       0
   125   1                       0      25.479999999999997      3.9199999999999986
   126   1                       0      27.439999999999998      1.9599999999999993
   127   1                       0      25.479999999999997      7.8399999999999999
   128   1                       0      27.439999999999998      5.8799999999999999
   129   1                       0      25.479999999999997                   11.76
   130   1                       0      27.439999999999998      9.7999999999999989
   131   1                       0      25.479999999999997                   15.68
   132   1                       0      27.439999999999998      13.719999999999999
   133   1                       0      25.479999999999997      19.600000000000001
   134   1                       0      27.439999999999998      17.640000000000001
   135   1                       0      25.479999999999997      23.520000000000003
   136   1                       0      27.439999999999998      21.560000000000002
   137   1                       0      25.479999999999997      27.439999999999998
   138   1                       0      27.439999999999998      25.479999999999997
   139   1                       0      25.479999999999997      31.359999999999999
   140   1                       0      27.439999999999998      29.399999999999999
   141   1                       0      25.479999999999997      35.280000000000001
   142   1                       0      27.439999999999998                   33.32
   143   1                       0      29.399999999999999                       0
   144   1                       0      29.399999999999999      3.9199999999999986
   145   1                       0      31.359999999999999      1.9599999999999993
   146   1                       0      29.399999999999999      7.8399999999999999
   147   1                       0      31.359999999999999      5.8799999999999999
   148   1                       0      29.399999999999999                   11.76
   149   1                       0      31.359999999999999      9.7999999999999989
   150   1                       0      29.399999999999999                   15.68
   151   1                       0      31.359999999999999      13.719999999999999
   152   1                       0      29.399999999999999      19.600000000000001
   153   1                       0      31.359999999999999      17.640000000000001
   154   1                       0      29.399999999999999      23.520000000000003
   155   1                       0      31.359999999999999      21.560000000000002
   156   1                       0      29.399999999999999      27.439999999999998
   157   1                       0      31.359999999999999      25.479999999999997
   158   1                       0      29.399999999999999      31.359999999999999
   159   1                       0      31.359999999999999      29.399999999999999
   160   1                       0      29.399999999999999      35.280000000000001
   161   1                       0      31.359999999999999                   33.32
   162   1                       0                   33.32                       0
   163   1                       0                   33.32      3.9199999999999986
   164   1                       0      35.280000000000001      1.9599999999999993
   165   1                       0                   33.32      7.8399999999999999
   166   1                       0      35.280000000000001      5.8799999999999999
   167   1                       0                   33.32                   11.76
   168   1                       0      35.280000000000001      9.7999999999999989
   169   1                       0                   33.32                   15.68
   170   1                       0      35.280000000000001      13.719999999999999
   171   1                       0                   33.32      19.600000000000001
   172   1                       0      35.280000000000001      17.640000000000001
   173   1                       0                   33.32      23.520000000000003
   174   1                       0      35.280000000000001      21.560000000000002
   175   1                       0                   33.32      27.439999999999998
   176   1                       0      35.280000000000001      25.479999999999997
   177   1                       0                   33.32      31.359999999999999
   178   1                       0      35.280000000000001      29.399999999999999
   179   1                       0                   33.32      35.280000000000001
   180   1                       0      35.280000000000001                   33.32
   181   1      1.9599999999999993                       0                       0
   182   1      1.9599999999999993                       0      3.9199999999999986
   183   1      3.9199999999999986                       0      1.9599999999999993
   184   1      1.9599999999999993                       0      7.8399999999999999
   185   1      3.9199999999999986                       0      5.8799999999999999
   186   1      1.9599999999999993                       0                   11.76
   187   1      3.9199999999999986                       0      9.7999999999999989
   188   1      1.9599999999999993                       0                   15.68
   189   1      3.9199999999999986                       0      13.719999999999999
   190   1      1.9599999999999993                       0      19.600000000000001
   191   1      3.9199999999999986                       0      17.640000000000001
   192   1      1.9599999999999993                       0      23.520000000000003
   193   1      3.9199999999999986                       0      21.560000000000002
   194   1      1.9599999999999993                       0      27.439999999999998
   195   1      3.9199999999999986                       0      25.479999999999997
   196   1      1.9599999999999993                       0      31.359999999999999
   197   1      3.9199999999999986                       0      29.399999999999999
   198   1      1.9599999999999993                       0      35.280000000000001
   199   1      3.9199999999999986                       0                   33.32
   200   1      1.9599999999999993      3.9199999999999986                       0
   201   1      3.9199999999999986      1.9599999999999993                       0
   202   1      1.9599999999999993      1.9599999999999993      1.9599999999999993
   203   1      1.9599999999999993      3.9199999999999986      3.9199999999999986
   204   1      3.9199999999999986      1.9599999999999993      3.9199999999999986
   205   1      3.9199999999999986      3.9199999999999986      1.9599999999999993
   206   1      1.9599999999999993      1.9599999999999993      5.8799999999999999
   207   1      1.9599999999999993      3.9199999999999986      7.8399999999999999
   208   1      3.9199999999999986      1.9599999999999993      7.8399999999999999
   209   1      3.9199999999999986      3.9199999999999986      5.8799999999999999
   210   1      1.9599999999999993      1.9599999999999993      9.7999999999999989
   211   1      1.9599999999999993      3.9199999999999986                   11.76
   212   1      3.9199999999999986      1.9599999999999993                   11.76
   213   1      3.9199999999999986      3.9199999999999986      9.7999999999999989
   214   1      1.9599999999999993      1.9599999999999993      13.719999999999999
   215   1      1.9599999999999993      3.9199999999999986                   15.68
   216   1      3.9199999999999986      1.9599999999999993                   15.68
   217   1      3.9199999999999986      3.9199999999999986      13.719999999999999
   218   1      1.9599999999999993      1.9599999999999993      17.640000000000001
   219   1      1.9599999999999993      3.9199999999999986      19.600000000000001
   220   1      3.9199999999999986      1.9599999999999993      19.600000000000001
   221   1      3.9199999999999986      3.9199999999999986      17.640000000000001
   222   1      1.9599999999999993      1.9599999999999993      21.560000000000002
   223   1      1.9599999999999993      3.9199999999999986      23.520000000000003
   224   1      3.9199999999999986      1.9599999999999993      23.520000000000003
   225   1      3.9199999999999986      3.9199999999999986      21.560000000000002
   226   1      1.9599999999999993      1.9599999999999993      25.479999999999997
   227   1      1.9599999999999993      3.9199999999999986      27.439999999999998
   228   1      3.9199999999999986      1.9599999999999993      27.439999999999998
   229   1      3.9199999999999986      3.9199999999999986      25.479999999999997
   230   1      1.9599999999999993      1.9599999999999993      29.399999999999999
   231   1      1.9599999999999993      3.9199999999999986      31.359999999999999
   232   1      3.9199999999999986      1.9599999999999993      31.359999999999999
   233   1      3.9199999999999986      3.9199999999999986      29.399999999999999
   234   1      1.9599999999999993      1.9599999999999993                   33.32
   235   1      1.9599999999999993      3.9199999999999986      35.280000000000001
   236   1      3.9199999999999986      1.9599999999999993      35.280000000000001
   237   1      3.9199999999999986      3.9199999999999986                   33.32
   238   1      1.9599999999999993      7.8399999999999999                       0
   239   1      3.9199999999999986      5.8799999999999999                       0
   240   1      1.9599999999999993      5.8799999999999999      1.9599999999999993
   241   1      1.9599999999999993      7.8399999999999999      3.9199999999999986
   242   1      3.9199999999999986      5.8799999999999999      3.9199999999999986
   243   1      3.9199999999999986      7.8399999999999999      1.9599999999999993
   244   1      1.9599999999999993      5.8799999999999999      5.8799999999999999
   245   1      1.9599999999999993      7.8399999999999999      7.8399999999999999
   246   1      3.9199999999999986      5.8799999999999999      7.8399999999999999
   247   1      3.9199999999999986      7.8399999999999999      5.8799999999999999
   248   1      1.9599999999999993      5.8799999999999999      9.7999999999999989
   249   1      1.9599999999999993      7.8399999999999999                   11.76
   250   1      3.9199999999999986      5.8799999999999999                   11.76
   251   1      3.9199999999999986      7.8399999999999999      9.7999999999999989
   252   1      1.9599999999999993      5.8799999999999999      13.719999999999999
   253   1      1.9599999999999993      7.8399999999999999                   15.68
   254   1      3.9199999999999986      5.8799999999999999                   15.68
   255   1      3.9199999999999986      7.8399999999999999      13.719999999999999
   256   1      1.9599999999999993      5.8799999999999999      17.640000000000001
   257   1      1.9599999999999993      7.8399999999999999      19.600000000000001
   258   1      3.9199999999999986      5.8799999999999999      19.600000000000001
   259   1      3.9199999999999986      7.8399999999999999      17.640000000000001
   260   1      1.9599999999999993      5.8799999999999999      21.560000000000002
   261   1      1.9599999999999993      7.8399999999999999      23.520000000000003
   262   1      3.9199999999999986      5.8799999999999999      23.520000000000003
   263   1      3.9199999999999986      7.8399999999999999      21.560000000000002
   264   1      1.9599999999999993      5.8799999999999999      25.479999999999997
   265   1      1.9599999999999993      7.8399999999999999      27.439999999999998
   266   1      3.9199999999999986      5.8799999999999999      27.439999999999998
   267   1      3.9199999999999986      7.8399999999999999      25.479999999999997
   268   1      1.9599999999999993      5.8799999999999999      29.399999999999999
   269   1      1.9599999999999993      7.8399999999999999      31.359999999999999
   270   1      3.9199999999999986      5.8799999999999999      31.359999999999999
   271   1      3.9199999999999986      7.8399999999999999      29.399999999999999
   272   1      1.9599999999999993      5.8799999999999999                   33.32
   273   1      1.9599999999999993      7.8399999999999999      35.280000000000001
   274   1      3.9199999999999986      5.8799999999999999      35.280000000000001
   275   1      3.9199999999999986      7.8399999999999999                   33.32
   276   1      1.9599999999999993                   11.76                       0
   277   1      3.9199999999999986      9.7999999999999989                       0
   278   1      1.9599999999999993      9.7999999999999989      1.9599999999999993
   279   1      1.9599999999999993                   11.76      3.9199999999999986
   280   1      3.9199999999999986      9.7999999999999989      3.9199999999999986
   281   1      3.9199999999999986                   11.76      1.9599999999999993
   282   1      1.9599999999999993      9.7999999999999989      5.8799999999999999
   283   1      1.9599999999999993                   11.76      7.8399999999999999
   284   1      3.9199999999999986      9.7999999999999989      7.8399999999999999
   285   1      3.9199999999999986                   11.76      5.8799999999999999
   286   1      1.9599999999999993      9.7999999999999989      9.7999999999999989
   287   1      1.9599999999999993                   11.76                   11.76
   288   1      3.9199999999999986      9.7999999999999989                   11.76
   289   1      3.9199999999999986                   11.76      9.7999999999999989
   290   1      1.9599999999999993      9.7999999999999989      13.719999999999999
   291   1      1.9599999999999993                   11.76                   15.68
   292   1      3.9199999999999986      9.7999999999999989                   15.68
   293   1      3.9199999999999986                   11.76      13.719999999999999
   294   1      1.9599999999999993      9.7999999999999989      17.640000000000001
   295   1      1.9599999999999993                   11.76      19.600000000000001
   296   1      3.9199999999999986      9.7999999999999989      19.600000000000001
   297   1      3.9199999999999986                   11.76      17.640000000000001
   298   1      1.9599999999999993      9.7999999999999989      21.560000000000002
   299   1      1.9599999999999993                   11.76      23.520000000000003
   300   1      3.9199999999999986      9.7999999999999989      23.520000000000003
   301   1      3.9199999999999986                   11.76      21.560000000000002
   302   1      1.9599999999999993      9.7999999999999989      25.479999999999997
   303   1      1.9599999999999993                   11.76      27.439999999999998
   304   1      3.9199999999999986      9.7999999999999989      27.439999999999998
   305   1      3.9199999999999986                   11.76      25.479999999999997
   306   1      1.9599999999999993      9.7999999999999989      29.399999999999999
   307   1      1.9599999999999993                   11.76      31.359999999999999
   308   1      3.9199999999999986      9.7999999999999989      31.359999999999999
   309   1      3.9199999999999986                   11.76      29.399999999999999
   310   1      1.9599999999999993      9.7999999999999989                   33.32
   311   1      1.9599999999999993                   11.76      35.280000000000001
   312   1      3.9199999999999986      9.7999999999999989      35.280000000000001
   313   1      3.9199999999999986                   11.76                   33.32
   314   1      1.9599999999999993                   15.68                       0
   315   1      3.9199999999999986      13.719999999999999                       0
   316   1      1.9599999999999993      13.719999999999999      1.9599999999999993
   317   1      1.9599999999999993                   15.68      3.9199999999999986
   318   1      3.9199999999999986      13.719999999999999      3.9199999999999986
   319   1      3.9199999999999986                   15.68      1.9599999999999993
   320   1      1.9599999999999993      13.719999999999999      5.8799999999999999
   321   1      1.9599999999999993                   15.68      7.8399999999999999
   322   1      3.9199999999999986      13.719999999999999      7.8399999999999999
   323   1      3.9199999999999986                   15.68      5.8799999999999999
   324   1      1.9599999999999993      13.719999999999999      9.7999999999999989
   325   1      1.9599999999999993                   15.68                   11.76
   326   1      3.9199999999999986      13.719999999999999                   11.76
   327   1      3.9199999999999986                   15.68      9.7999999999999989
   328   1      1.9599999999999993      13.719999999999999      13.719999999999999
   329   1      1.9599999999999993                   15.68                   15.68
   330   1      3.9199999999999986      13.719999999999999                   15.68
   331   1      3.9199999999999986                   15.68      13.719999999999999
   332   1      1.9599999999999993      13.719999999999999      17.640000000000001
   333   1      1.9599999999999993                   15.68      19.600000000000001
   334   1      3.9199999999999986      13.719999999999999      19.600000000000001
   335   1      3.9199999999999986                   15.68      17.640000000000001
   336   1      1.9599999999999993      13.719999999999999      21.560000000000002
   337   1      1.9599999999999993                   15.68      23.520000000000003
   338   1      3.9199999999999986      13.719999999999999      23.520000000000003
   339   1      3.9199999999999986                   15.68      21.560000000000002
   340   1      1.9599999999999993      13.719999999999999      25.479999999999997
   341   1      1.9599999999999993                   15.68      27.439999999999998
   342   1      3.9199999999999986      13.719999999999999      27.439999999999998
   343   1      3.9199999999999986                   15.68      25.479999999999997
   344   1      1.9599999999999993      13.719999999999999      29.399999999999999
   345   1      1.9599999999999993                   15.68      31.359999999999999
   346   1      3.9199999999999986      13.719999999999999      31.359999999999999
   347   1      3.9199999999999986                   15.68      29.399999999999999
   348   1      1.9599999999999993      13.719999999999999                   33.32
   349   1      1.9599999999999993                   15.68      35.280000000000001
   350   1      3.9199999999999986      13.719999999999999      35.280000000000001
   351   1      3.9199999999999986                   15.68                   33.32
   352   1      1.9599999999999993      19.600000000000001                       0
   353   1      3.9199999999999986      17.640000000000001                       0
   354   1      1.9599999999999993      17.640000000000001      1.9599999999999993
   355   1      1.9599999999999993      19.600000000000001      3.9199999999999986
   356   1      3.9199999999999986      17.640000000000001      3.9199999999999986
   357   1      3.9199999999999986      19.600000000000001      1.9599999999999993
   358   1      1.9599999999999993      17.640000000000001      5.8799999999999999