LAMMPS data file via write_data, version 30 Nov 2020, timestep = 0

31263 atoms
5 atom types

0 109 xlo xhi
0 109 ylo yhi
0 109 zlo zhi

Masses

1 58.7
2 55.8
3 52
4 59
5 63

Atoms # atomic

1 3 7.105427357601002e-15 51.765 51.765 0 0 0
2 1 1.7850000000000037 49.980000000000004 51.765 0 0 0
3 2 1.7850000000000037 51.765 49.980000000000004 0 0 0
6 4 1.7850000000000037 51.765 53.550000000000004 0 0 0
9 4 1.7850000000000037 53.550000000000004 51.765 0 0 0
11 2 7.105427357601002e-15 53.550000000000004 53.550000000000004 0 0 0
18 2 3.5700000000000074 48.195 48.195 0 0 0
19 1 5.355000000000004 46.410000000000004 48.195 0 0 0
20 2 5.355000000000004 48.195 46.410000000000004 0 0 0
21 1 3.5700000000000074 48.195 51.765 0 0 0
22 1 5.355000000000004 46.410000000000004 51.765 0 0 0
23 3 5.355000000000004 48.195 49.980000000000004 0 0 0
26 1 5.355000000000004 48.195 53.550000000000004 0 0 0
31 5 3.5700000000000074 51.765 48.195 0 0 0
32 3 5.355000000000004 49.980000000000004 48.195 0 0 0
33 3 5.355000000000004 51.765 46.410000000000004 0 0 0
34 4 3.5700000000000074 49.980000000000004 49.980000000000004 0 0 0
35 3 3.5700000000000074 51.765 51.765 0 0 0
36 5 5.355000000000004 49.980000000000004 51.765 0 0 0
37 2 5.355000000000004 51.765 49.980000000000004 0 0 0
38 2 3.5700000000000074 49.980000000000004 53.550000000000004 0 0 0
41 3 5.355000000000004 51.765 53.550000000000004 0 0 0
48 5 5.355000000000004 53.550000000000004 48.195 0 0 0
50 3 3.5700000000000074 53.550000000000004 49.980000000000004 0 0 0
52 5 5.355000000000004 53.550000000000004 51.765 0 0 0
54 4 3.5700000000000074 53.550000000000004 53.550000000000004 0 0 0
83 3 7.140000000000008 44.625 44.625 0 0 0
84 1 8.925000000000004 42.84 44.625 0 0 0
85 3 8.925000000000004 44.625 42.84 0 0 0
86 3 7.140000000000008 44.625 48.195 0 0 0
87 2 8.925000000000004 42.84 48.195 0 0 0
88 2 8.925000000000004 44.625 46.410000000000004 0 0 0
89 5 7.140000000000008 44.625 51.765 0 0 0
90 2 8.925000000000004 42.84 51.765 0 0 0
91 1 8.925000000000004 44.625 49.980000000000004 0 0 0
94 5 8.925000000000004 44.625 53.550000000000004 0 0 0
102 2 7.140000000000008 48.195 44.625 0 0 0
103 1 8.925000000000004 46.410000000000004 44.625 0 0 0
104 5 8.925000000000004 48.195 42.84 0 0 0
105 5 7.140000000000008 46.410000000000004 46.410000000000004 0 0 0
106 4 7.140000000000008 48.195 48.195 0 0 0
107 2 8.925000000000004 46.410000000000004 48.195 0 0 0
108 2 8.925000000000004 48.195 46.410000000000004 0 0 0
109 5 7.140000000000008 46.410000000000004 49.980000000000004 0 0 0
110 3 7.140000000000008 48.195 51.765 0 0 0
111 3 8.925000000000004 46.410000000000004 51.765 0 0 0
112 5 8.925000000000004 48.195 49.980000000000004 0 0 0
113 3 7.140000000000008 46.410000000000004 53.550000000000004 0 0 0
116 5 8.925000000000004 48.195 53.550000000000004 0 0 0
126 5 7.140000000000008 51.765 44.625 0 0 0
127 4 8.925000000000004 49.980000000000004 44.625 0 0 0
128 4 8.925000000000004 51.765 42.84 0 0 0
129 1 7.140000000000008 49.980000000000004 46.410000000000004 0 0 0
130 3 7.140000000000008 51.765 48.195 0 0 0
131 1 8.925000000000004 49.980000000000004 48.195 0 0 0
132 2 8.925000000000004 51.765 46.410000000000004 0 0 0
133 3 7.140000000000008 49.980000000000004 49.980000000000004 0 0 0
134 4 7.140000000000008 51.765 51.765 0 0 0
135 5 8.925000000000004 49.980000000000004 51.765 0 0 0
136 4 8.925000000000004 51.765 49.980000000000004 0 0 0
137 3 7.140000000000008 49.980000000000004 53.550000000000004 0 0 0
140 4 8.925000000000004 51.765 53.550000000000004 0 0 0
151 3 8.925000000000004 53.550000000000004 44.625 0 0 0
153 3 7.140000000000008 53.550000000000004 46.410000000000004 0 0 0
155 4 8.925000000000004 53.550000000000004 48.195 0 0 0
157 5 7.140000000000008 53.550000000000004 49.980000000000004 0 0 0
159 3 8.925000000000004 53.550000000000004 51.765 0 0 0
161 2 7.140000000000008 53.550000000000004 53.550000000000004 0 0 0
228 2 10.710000000000008 41.055 41.055 0 0 0
229 4 12.495000000000006 39.27 41.055 0 0 0
230 5 12.495000000000006 41.055 39.27 0 0 0
231 3 10.710000000000008 41.055 44.625 0 0 0
232 5 12.495000000000006 39.27 44.625 0 0 0
233 1 12.495000000000006 41.055 42.84 0 0 0
234 3 10.710000000000008 41.055 48.195 0 0 0
235 3 12.495000000000006 39.27 48.195 0 0 0
236 2 12.495000000000006 41.055 46.410000000000004 0 0 0
237 4 10.710000000000008 41.055 51.765 0 0 0
238 5 12.495000000000006 39.27 51.765 0 0 0
239 4 12.495000000000006 41.055 49.980000000000004 0 0 0
242 5 12.495000000000006 41.055 53.550000000000004 0 0 0
253 5 10.710000000000008 44.625 41.055 0 0 0
254 5 12.495000000000006 42.84 41.055 0 0 0
255 4 12.495000000000006 44.625 39.27 0 0 0
256 1 10.710000000000008 42.84 42.84 0 0 0
257 4 10.710000000000008 44.625 44.625 0 0 0
258 3 12.495000000000006 42.84 44.625 0 0 0
259 1 12.495000000000006 44.625 42.84 0 0 0
260 5 10.710000000000008 42.84 46.410000000000004 0 0 0
261 2 10.710000000000008 44.625 48.195 0 0 0
262 2 12.495000000000006 42.84 48.195 0 0 0
263 2 12.495000000000006 44.625 46.410000000000004 0 0 0
264 3 10.710000000000008 42.84 49.980000000000004 0 0 0
265 4 10.710000000000008 44.625 51.765 0 0 0
266 5 12.495000000000006 42.84 51.765 0 0 0
267 4 12.495000000000006 44.625 49.980000000000004 0 0 0
268 3 10.710000000000008 42.84 53.550000000000004 0 0 0
271 5 12.495000000000006 44.625 53.550000000000004 0 0 0
285 1 10.710000000000008 48.195 41.055 0 0 0
286 3 12.495000000000006 46.410000000000004 41.055 0 0 0
287 2 12.495000000000006 48.195 39.27 0 0 0
288 3 10.710000000000008 46.410000000000004 42.84 0 0 0
289 2 10.710000000000008 48.195 44.625 0 0 0
290 2 12.495000000000006 46.410000000000004 44.625 0 0 0
291 3 12.495000000000006 48.195 42.84 0 0 0
292 3 10.710000000000008 46.410000000000004 46.410000000000004 0 0 0
293 5 10.710000000000008 48.195 48.195 0 0 0
294 2 12.495000000000006 46.410000000000004 48.195 0 0 0
295 2 12.495000000000006 48.195 46.410000000000004 0 0 0
296 5 10.710000000000008 46.410000000000004 49.980000000000004 0 0 0
297 1 10.710000000000008 48.195 51.765 0 0 0
298 5 12.495000000000006 46.410000000000004 51.765 0 0 0
299 2 12.495000000000006 48.195 49.980000000000004 0 0 0
300 1 10.710000000000008 46.410000000000004 53.550000000000004 0 0 0
303 5 12.495000000000006 48.195 53.550000000000004 0 0 0
317 2 10.710000000000008 51.765 41.055 0 0 0
318 2 12.495000000000006 49.980000000000004 41.055 0 0 0
319 1 12.495000000000006 51.765 39.27 0 0 0
320 1 10.710000000000008 49.980000000000004 42.84 0 0 0
321 4 10.710000000000008 51.765 44.625 0 0 0
322 1 12.495000000000006 49.980000000000004 44.625 0 0 0
323 2 12.495000000000006 51.765 42.84 0 0 0
324 4 10.710000000000008 49.980000000000004 46.410000000000004 0 0 0
325 2 10.710000000000008 51.765 48.195 0 0 0
326 4 12.495000000000006 49.980000000000004 48.195 0 0 0
327 2 12.495000000000006 51.765 46.410000000000004 0 0 0
328 3 10.710000000000008 49.980000000000004 49.980000000000004 0 0 0
329 5 10.710000000000008 51.765 51.765 0 0 0
330 2 12.495000000000006 49.980000000000004 51.765 0 0 0
331 5 12.495000000000006 51.765 49.980000000000004 0 0 0
332 4 10.710000000000008 49.980000000000004 53.550000000000004 0 0 0
335 3 12.495000000000006 51.765 53.550000000000004 0 0 0
350 5 12.495000000000006 53.550000000000004 41.055 0 0 0
352 1 10.710000000000008 53.550000000000004 42.84 0 0 0
354 4 12.495000000000006 53.550000000000004 44.625 0 0 0
356 4 10.710000000000008 53.550000000000004 46.410000000000004 0 0 0
358 4 12.495000000000006 53.550000000000004 48.195 0 0 0
360 1 10.710000000000008 53.550000000000004 49.980000000000004 0 0 0
362 2 12.495000000000006 53.550000000000004 51.765 0 0 0
364 2 10.710000000000008 53.550000000000004 53.550000000000004 0 0 0
485 1 14.280000000000008 37.485 37.485 0 0 0
486 1 16.065000000000005 35.7 37.485 0 0 0
487 4 16.065000000000005 37.485 35.7 0 0 0
488 1 14.280000000000008 37.485 41.055 0 0 0
489 5 16.065000000000005 35.7 41.055 0 0 0
490 1 16.065000000000005 37.485 39.27 0 0 0
491 3 14.280000000000008 37.485 44.625 0 0 0
492 5 16.065000000000005 35.7 44.625 0 0 0
493 1 16.065000000000005 37.485 42.84 0 0 0
494 4 14.280000000000008 37.485 48.195 0 0 0
495 1 16.065000000000005 35.7 48.195 0 0 0
496 4 16.065000000000005 37.485 46.410000000000004 0 0 0
497 3 14.280000000000008 37.485 51.765 0 0 0
498 2 16.065000000000005 35.7 51.765 0 0 0
499 5 16.065000000000005 37.485 49.980000000000004 0 0 0
502 2 16.065000000000005 37.485 53.550000000000004 0 0 0
516 2 14.280000000000008 41.055 37.485 0 0 0
517 5 16.065000000000005 39.27 37.485 0 0 0
518 2 16.065000000000005 41.055 35.7 0 0 0
519 4 14.280000000000008 39.27 39.27 0 0 0
520 1 14.280000000000008 41.055 41.055 0 0 0
521 1 16.065000000000005 39.27 41.055 0 0 0
522 3 16.065000000000005 41.055 39.27 0 0 0
523 2 14.280000000000008 39.27 42.84 0 0 0
524 2 14.280000000000008 41.055 44.625 0 0 0
525 4 16.065000000000005 39.27 44.625 0 0 0
526 3 16.065000000000005 41.055 42.84 0 0 0
527 5 14.280000000000008 39.27 46.410000000000004 0 0 0
528 3 14.280000000000008 41.055 48.195 0 0 0
529 4 16.065000000000005 39.27 48.195 0 0 0
530 4 16.065000000000005 41.055 46.410000000000004 0 0 0
531 5 14.280000000000008 39.27 49.980000000000004 0 0 0
532 1 14.280000000000008 41.055 51.765 0 0 0
533 1 16.065000000000005 39.27 51.765 0 0 0
534 4 16.065000000000005 41.055 49.980000000000004 0 0 0
535 4 14.280000000000008 39.27 53.550000000000004 0 0 0
538 4 16.065000000000005 41.055 53.550000000000004 0 0 0
556 4 14.280000000000008 44.625 37.485 0 0 0
557 1 16.065000000000005 42.84 37.485 0 0 0
558 3 16.065000000000005 44.625 35.7 0 0 0
559 4 14.280000000000008 42.84 39.27 0 0 0
560 3 14.280000000000008 44.625 41.055 0 0 0
561 1 16.065000000000005 42.84 41.055 0 0 0
562 1 16.065000000000005 44.625 39.27 0 0 0
563 4 14.280000000000008 42.84 42.84 0 0 0
564 3 14.280000000000008 44.625 44.625 0 0 0
565 4 16.065000000000005 42.84 44.625 0 0 0
566 2 16.065000000000005 44.625 42.84 0 0 0
567 3 14.280000000000008 42.84 46.410000000000004 0 0 0
568 3 14.280000000000008 44.625 48.195 0 0 0
569 5 16.065000000000005 42.84 48.195 0 0 0
570 5 16.065000000000005 44.625 46.410000000000004 0 0 0
571 3 14.280000000000008 42.84 49.980000000000004 0 0 0
572 1 14.280000000000008 44.625 51.765 0 0 0
573 5 16.065000000000005 42.84 51.765 0 0 0
574 5 16.065000000000005 44.625 49.980000000000004 0 0 0
575 2 14.280000000000008 42.84 53.550000000000004 0 0 0
578 2 16.065000000000005 44.625 53.550000000000004 0 0 0
596 1 14.280000000000008 48.195 37.485 0 0 0
597 2 16.065000000000005 46.410000000000004 37.485 0 0 0
598 4 16.065000000000005 48.195 35.7 0 0 0
599 1 14.280000000000008 46.410000000000004 39.27 0 0 0
600 5 14.280000000000008 48.195 41.055 0 0 0
601 4 16.065000000000005 46.410000000000004 41.055 0 0 0
602 2 16.065000000000005 48.195 39.27 0 0 0
603 4 14.280000000000008 46.410000000000004 42.84 0 0 0
604 5 14.280000000000008 48.195 44.625 0 0 0
605 2 16.065000000000005 46.410000000000004 44.625 0 0 0
606 1 16.065000000000005 48.195 42.84 0 0 0
607 2 14.280000000000008 46.410000000000004 46.410000000000004 0 0 0
608 1 14.280000000000008 48.195 48.195 0 0 0
609 2 16.065000000000005 46.410000000000004 48.195 0 0 0
610 3 16.065000000000005 48.195 46.410000000000004 0 0 0
611 1 14.280000000000008 46.410000000000004 49.980000000000004 0 0 0
612 4 14.280000000000008 48.195 51.765 0 0 0
613 3 16.065000000000005 46.410000000000004 51.765 0 0 0
614 1 16.065000000000005 48.195 49.980000000000004 0 0 0
615 4 14.280000000000008 46.410000000000004 53.550000000000004 0 0 0
618 1 16.065000000000005 48.195 53.550000000000004 0 0 0
636 5 14.280000000000008 51.765 37.485 0 0 0
637 5 16.065000000000005 49.980000000000004 37.485 0 0 0
638 1 16.065000000000005 51.765 35.7 0 0 0
639 3 14.280000000000008 49.980000000000004 39.27 0 0 0
640 4 14.280000000000008 51.765 41.055 0 0 0
641 2 16.065000000000005 49.980000000000004 41.055 0 0 0
642 1 16.065000000000005 51.765 39.27 0 0 0
643 5 14.280000000000008 49.980000000000004 42.84 0 0 0
644 2 14.280000000000008 51.765 44.625 0 0 0
645 1 16.065000000000005 49.980000000000004 44.625 0 0 0
646 5 16.065000000000005 51.765 42.84 0 0 0
647 3 14.280000000000008 49.980000000000004 46.410000000000004 0 0 0
648 4 14.280000000000008 51.765 48.195 0 0 0
649 2 16.065000000000005 49.980000000000004 48.195 0 0 0
650 1 16.065000000000005 51.765 46.410000000000004 0 0 0
651 4 14.280000000000008 49.980000000000004 49.980000000000004 0 0 0
652 5 14.280000000000008 51.765 51.765 0 0 0
653 5 16.065000000000005 49.980000000000004 51.765 0 0 0
654 5 16.065000000000005 51.765 49.980000000000004 0 0 0
655 5 14.280000000000008 49.980000000000004 53.550000000000004 0 0 0
658 4 16.065000000000005 51.765 53.550000000000004 0 0 0
677 1 16.065000000000005 53.550000000000004 37.485 0 0 0
679 4 14.280000000000008 53.550000000000004 39.27 0 0 0
681 4 16.065000000000005 53.550000000000004 41.055 0 0 0
683 2 14.280000000000008 53.550000000000004 42.84 0 0 0
685 2 16.065000000000005 53.550000000000004 44.625 0 0 0
687 2 14.280000000000008 53.550000000000004 46.410000000000004 0 0 0
689 2 16.065000000000005 53.550000000000004 48.195 0 0 0
691 4 14.280000000000008 53.550000000000004 49.980000000000004 0 0 0
693 3 16.065000000000005 53.550000000000004 51.765 0 0 0
695 1 14.280000000000008 53.550000000000004 53.550000000000004 0 0 0
886 3 17.85 33.915 33.915 0 0 0
887 5 19.635000000000005 32.13 33.915 0 0 0
888 3 19.635000000000005 33.915 32.13 0 0 0
889 1 17.85 33.915 37.485 0 0 0
890 2 19.635000000000005 32.13 37.485 0 0 0
891 3 19.635000000000005 33.915 35.7 0 0 0
892 5 17.85 33.915 41.055 0 0 0
893 2 19.635000000000005 32.13 41.055 0 0 0
894 2 19.635000000000005 33.915 39.27 0 0 0
895 5 17.85 33.915 44.625 0 0 0
896 2 19.635000000000005 32.13 44.625 0 0 0
897 4 19.635000000000005 33.915 42.84 0 0 0
898 1 17.85 33.915 48.195 0 0 0
899 2 19.635000000000005 32.13 48.195 0 0 0
900 5 19.635000000000005 33.915 46.410000000000004 0 0 0
901 5 17.85 33.915 51.765 0 0 0
902 1 19.635000000000005 32.13 51.765 0 0 0
903 2 19.635000000000005 33.915 49.980000000000004 0 0 0
906 1 19.635000000000005 33.915 53.550000000000004 0 0 0
923 2 17.85 37.485 33.915 0 0 0
924 5 19.635000000000005 35.7 33.915 0 0 0
925 2 19.635000000000005 37.485 32.13 0 0 0
926 2 17.85 35.7 35.7 0 0 0
927 3 17.85 37.485 37.485 0 0 0
928 1 19.635000000000005 35.7 37.485 0 0 0
929 4 19.635000000000005 37.485 35.7 0 0 0
930 3 17.85 35.7 39.27 0 0 0
931 2 17.85 37.485 41.055 0 0 0
932 1 19.635000000000005 35.7 41.055 0 0 0
933 3 19.635000000000005 37.485 39.27 0 0 0
934 4 17.85 35.7 42.84 0 0 0
935 4 17.85 37.485 44.625 0 0 0
936 3 19.635000000000005 35.7 44.625 0 0 0
937 2 19.635000000000005 37.485 42.84 0 0 0
938 1 17.85 35.7 46.410000000000004 0 0 0
939 3 17.85 37.485 48.195 0 0 0
940 2 19.635000000000005 35.7 48.195 0 0 0
941 2 19.635000000000005 37.485 46.410000000000004 0 0 0
942 3 17.85 35.7 49.980000000000004 0 0 0
943 3 17.85 37.485 51.765 0 0 0
944 3 19.635000000000005 35.7 51.765 0 0 0
945 5 19.635000000000005 37.485 49.980000000000004 0 0 0
946 2 17.85 35.7 53.550000000000004 0 0 0
949 3 19.635000000000005 37.485 53.550000000000004 0 0 0
971 5 17.85 41.055 33.915 0 0 0
972 5 19.635000000000005 39.27 33.915 0 0 0
973 4 19.635000000000005 41.055 32.13 0 0 0
974 2 17.85 39.27 35.7 0 0 0
975 5 17.85 41.055 37.485 0 0 0
976 4 19.635000000000005 39.27 37.485 0 0 0
977 3 19.635000000000005 41.055 35.7 0 0 0
978 2 17.85 39.27 39.27 0 0 0
979 1 17.85 41.055 41.055 0 0 0
980 2 19.635000000000005 39.27 41.055 0 0 0
981 4 19.635000000000005 41.055 39.27 0 0 0
982 5 17.85 39.27 42.84 0 0 0
983 5 17.85 41.055 44.625 0 0 0
984 4 19.635000000000005 39.27 44.625 0 0 0
985 1 19.635000000000005 41.055 42.84 0 0 0
986 2 17.85 39.27 46.410000000000004 0 0 0
987 1 17.85 41.055 48.195 0 0 0
988 2 19.635000000000005 39.27 48.195 0 0 0
989 1 19.635000000000005 41.055 46.410000000000004 0 0 0
990 1 17.85 39.27 49.980000000000004 0 0 0
991 3 17.85 41.055 51.765 0 0 0
992 4 19.635000000000005 39.27 51.765 0 0 0
993 4 19.635000000000005 41.055 49.980000000000004 0 0 0
994 1 17.85 39.27 53.550000000000004 0 0 0
997 2 19.635000000000005 41.055 53.550000000000004 0 0 0
1019 5 17.85 44.625 33.915 0 0 0
1020 2 19.635000000000005 42.84 33.915 0 0 0
1021 4 19.635000000000005 44.625 32.13 0 0 0
1022 4 17.85 42.84 35.7 0 0 0
1023 3 17.85 44.625 37.485 0 0 0
1024 5 19.635000000000005 42.84 37.485 0 0 0
1025 2 19.635000000000005 44.625 35.7 0 0 0
1026 4 17.85 42.84 39.27 0 0 0
1027 5 17.85 44.625 41.055 0 0 0
1028 3 19.635000000000005 42.84 41.055 0 0 0
1029 5 19.635000000000005 44.625 39.27 0 0 0
1030 1 17.85 42.84 42.84 0 0 0
1031 5 17.85 44.625 44.625 0 0 0
1032 1 19.635000000000005 42.84 44.625 0 0 0
1033 4 19.635000000000005 44.625 42.84 0 0 0
1034 5 17.85 42.84 46.410000000000004 0 0 0
1035 2 17.85 44.625 48.195 0 0 0
1036 5 19.635000000000005 42.84 48.195 0 0 0
1037 3 19.635000000000005 44.625 46.410000000000004 0 0 0
1038 2 17.85 42.84 49.980000000000004 0 0 0
1039 4 17.85 44.625 51.765 0 0 0
1040 4 19.635000000000005 42.84 51.765 0 0 0
1041 2 19.635000000000005 44.625 49.980000000000004 0 0 0
1042 1 17.85 42.84 53.550000000000004 0 0 0
1045 2 19.635000000000005 44.625 53.550000000000004 0 0 0
1067 2 17.85 48.195 33.915 0 0 0
1068 4 19.635000000000005 46.410000000000004 33.915 0 0 0
1069 5 19.635000000000005 48.195 32.13 0 0 0
1070 4 17.85 46.410000000000004 35.7 0 0 0
1071 1 17.85 48.195 37.485 0 0 0
1072 1 19.635000000000005 46.410000000000004 37.485 0 0 0
1073 2 19.635000000000005 48.195 35.7 0 0 0
1074 5 17.85 46.410000000000004 39.27 0 0 0
1075 3 17.85 48.195 41.055 0 0 0
1076 1 19.635000000000005 46.410000000000004 41.055 0 0 0
1077 4 19.635000000000005 48.195 39.27 0 0 0
1078 1 17.85 46.410000000000004 42.84 0 0 0
1079 5 17.85 48.195 44.625 0 0 0
1080 4 19.635000000000005 46.410000000000004 44.625 0 0 0
1081 1 19.635000000000005 48.195 42.84 0 0 0
1082 3 17.85 46.410000000000004 46.410000000000004 0 0 0
1083 1 17.85 48.195 48.195 0 0 0
1084 4 19.635000000000005 46.410000000000004 48.195 0 0 0
1085 2 19.635000000000005 48.195 46.410000000000004 0 0 0
1086 3 17.85 46.410000000000004 49.980000000000004 0 0 0
1087 2 17.85 48.195 51.765 0 0 0
1088 1 19.635000000000005 46.410000000000004 51.765 0 0 0
1089 3 19.635000000000005 48.195 49.980000000000004 0 0 0
1090 1 17.85 46.410000000000004 53.550000000000004 0 0 0
1093 2 19.635000000000005 48.195 53.550000000000004 0 0 0
1115 1 17.85 51.765 33.915 0 0 0
1116 2 19.635000000000005 49.980000000000004 33.915 0 0 0
1117 5 19.635000000000005 51.765 32.13 0 0 0
1118 1 17.85 49.980000000000004 35.7 0 0 0
1119 1 17.85 51.765 37.485 0 0 0
1120 3 19.635000000000005 49.980000000000004 37.485 0 0 0
1121 1 19.635000000000005 51.765 35.7 0 0 0
1122 4 17.85 49.980000000000004 39.27 0 0 0
1123 1 17.85 51.765 41.055 0 0 0
1124 5 19.635000000000005 49.980000000000004 41.055 0 0 0
1125 1 19.635000000000005 51.765 39.27 0 0 0
1126 1 17.85 49.980000000000004 42.84 0 0 0
1127 1 17.85 51.765 44.625 0 0 0
1128 3 19.635000000000005 49.980000000000004 44.625 0 0 0
1129 1 19.635000000000005 51.765 42.84 0 0 0
1130 5 17.85 49.980000000000004 46.410000000000004 0 0 0
1131 1 17.85 51.765 48.195 0 0 0
1132 5 19.635000000000005 49.980000000000004 48.195 0 0 0
1133 2 19.635000000000005 51.765 46.410000000000004 0 0 0
1134 2 17.85 49.980000000000004 49.980000000000004 0 0 0
1135 2 17.85 51.765 51.765 0 0 0
1136 2 19.635000000000005 49.980000000000004 51.765 0 0 0
1137 2 19.635000000000005 51.765 49.980000000000004 0 0 0
1138 3 17.85 49.980000000000004 53.550000000000004 0 0 0
1141 2 19.635000000000005 51.765 53.550000000000004 0 0 0
1164 3 19.635000000000005 53.550000000000004 33.915 0 0 0
1166 1 17.85 53.550000000000004 35.7 0 0 0
1168 5 19.635000000000005 53.550000000000004 37.485 0 0 0
1170 2 17.85 53.550000000000004 39.27 0 0 0
1172 5 19.635000000000005 53.550000000000004 41.055 0 0 0
1174 4 17.85 53.550000000000004 42.84 0 0 0
1176 2 19.635000000000005 53.550000000000004 44.625 0 0 0
1178 5 17.85 53.550000000000004 46.410000000000004 0 0 0
1180 5 19.635000000000005 53.550000000000004 48.195 0 0 0
1182 1 17.85 53.550000000000004 49.980000000000004 0 0 0
1184 1 19.635000000000005 53.550000000000004 51.765 0 0 0
1186 1 17.85 53.550000000000004 53.550000000000004 0 0 0
1463 3 21.420000000000012 30.345000000000002 30.345000000000002 0 0 0
1464 4 23.205000000000005 28.560000000000006 30.345000000000002 0 0 0
1465 3 23.205000000000005 30.345000000000002 28.560000000000006 0 0 0
1466 4 21.420000000000012 30.345000000000002 33.915 0 0 0
1467 5 23.205000000000005 28.560000000000006 33.915 0 0 0
1468 5 23.205000000000005 30.345000000000002 32.13 0 0 0
1469 3 21.420000000000012 30.345000000000002 37.485 0 0 0
1470 1 23.205000000000005 28.560000000000006 37.485 0 0 0
1471 5 23.205000000000005 30.345000000000002 35.7 0 0 0
1472 3 21.420000000000012 30.345000000000002 41.055 0 0 0
1473 3 23.205000000000005 28.560000000000006 41.055 0 0 0
1474 1 23.205000000000005 30.345000000000002 39.27 0 0 0
1475 2 21.420000000000012 30.345000000000002 44.625 0 0 0
1476 1 23.205000000000005 28.560000000000006 44.625 0 0 0
1477 4 23.205000000000005 30.345000000000002 42.84 0 0 0
1478 4 21.420000000000012 30.345000000000002 48.195 0 0 0
1479 1 23.205000000000005 28.560000000000006 48.195 0 0 0
1480 1 23.205000000000005 30.345000000000002 46.410000000000004 0 0 0
1481 1 21.420000000000012 30.345000000000002 51.765 0 0 0
1482 2 23.205000000000005 28.560000000000006 51.765 0 0 0
1483 2 23.205000000000005 30.345000000000002 49.980000000000004 0 0 0
1486 5 23.205000000000005 30.345000000000002 53.550000000000004 0 0 0
1506 2 21.420000000000012 33.915 30.345000000000002 0 0 0
1507 1 23.205000000000005 32.13 30.345000000000002 0 0 0
1508 5 23.205000000000005 33.915 28.560000000000006 0 0 0
1509 5 21.420000000000012 32.13 32.13 0 0 0
1510 2 21.420000000000012 33.915 33.915 0 0 0
1511 2 23.205000000000005 32.13 33.915 0 0 0
1512 5 23.205000000000005 33.915 32.13 0 0 0
1513 1 21.420000000000012 32.13 35.7 0 0 0
1514 3 21.420000000000012 33.915 37.485 0 0 0
1515 4 23.205000000000005 32.13 37.485 0 0 0
1516 4 23.205000000000005 33.915 35.7 0 0 0
1517 2 21.420000000000012 32.13 39.27 0 0 0
1518 4 21.420000000000012 33.915 41.055 0 0 0
1519 1 23.205000000000005 32.13 41.055 0 0 0
1520 4 23.205000000000005 33.915 39.27 0 0 0
1521 4 21.420000000000012 32.13 42.84 0 0 0
1522 1 21.420000000000012 33.915 44.625 0 0 0
1523 4 23.205000000000005 32.13 44.625 0 0 0
1524 2 23.205000000000005 33.915 42.84 0 0 0
1525 5 21.420000000000012 32.13 46.410000000000004 0 0 0
1526 1 21.420000000000012 33.915 48.195 0 0 0
1527 4 23.205000000000005 32.13 48.195 0 0 0
1528 2 23.205000000000005 33.915 46.410000000000004 0 0 0
1529 3 21.420000000000012 32.13 49.980000000000004 0 0 0
1530 1 21.420000000000012 33.915 51.765 0 0 0
1531 1 23.205000000000005 32.13 51.765 0 0 0
1532 4 23.205000000000005 33.915 49.980000000000004 0 0 0
1533 4 21.420000000000012 32.13 53.550000000000004 0 0 0
1536 2 23.205000000000005 33.915 53.550000000000004 0 0 0
1562 1 21.420000000000012 37.485 30.345000000000002 0 0 0
1563 1 23.205000000000005 35.7 30.345000000000002 0 0 0
1564 4 23.205000000000005 37.485 28.560000000000006 0 0 0
1565 5 21.420000000000012 35.7 32.13 0 0 0
1566 4 21.420000000000012 37.485 33.915 0 0 0
1567 2 23.205000000000005 35.7 33.915 0 0 0
1568 2 23.205000000000005 37.485 32.13 0 0 0
1569 5 21.420000000000012 35.7 35.7 0 0 0
1570 4 21.420000000000012 37.485 37.485 0 0 0
1571 2 23.205000000000005 35.7 37.485 0 0 0
1572 2 23.205000000000005 37.485 35.7 0 0 0
1573 3 21.420000000000012 35.7 39.27 0 0 0
1574 5 21.420000000000012 37.485 41.055 0 0 0
1575 3 23.205000000000005 35.7 41.055 0 0 0
1576 1 23.205000000000005 37.485 39.27 0 0 0
1577 2 21.420000000000012 35.7 42.84 0 0 0
1578 3 21.420000000000012 37.485 44.625 0 0 0
1579 5 23.205000000000005 35.7 44.625 0 0 0
1580 5 23.205000000000005 37.485 42.84 0 0 0
1581 4 21.420000000000012 35.7 46.410000000000004 0 0 0
1582 3 21.420000000000012 37.485 48.195 0 0 0
1583 4 23.205000000000005 35.7 48.195 0 0 0
1584 1 23.205000000000005 37.485 46.410000000000004 0 0 0
1585 1 21.420000000000012 35.7 49.980000000000004 0 0 0
1586 1 21.420000000000012 37.485 51.765 0 0 0
1587 1 23.205000000000005 35.7 51.765 0 0 0
1588 1 23.205000000000005 37.485 49.980000000000004 0 0 0
1589 5 21.420000000000012 35.7 53.550000000000004 0 0 0
1592 4 23.205000000000005 37.485 53.550000000000004 0 0 0
1618 1 21.420000000000012 41.055 30.345000000000002 0 0 0
1619 3 23.205000000000005 39.27 30.345000000000002 0 0 0
1620 1 23.205000000000005 41.055 28.560000000000006 0 0 0
1621 3 21.420000000000012 39.27 32.13 0 0 0
1622 2 21.420000000000012 41.055 33.915 0 0 0
1623 2 23.205000000000005 39.27 33.915 0 0 0
1624 5 23.205000000000005 41.055 32.13 0 0 0
1625 5 21.420000000000012 39.27 35.7 0 0 0
1626 3 21.420000000000012 41.055 37.485 0 0 0
1627 2 23.205000000000005 39.27 37.485 0 0 0
1628 4 23.205000000000005 41.055 35.7 0 0 0
1629 5 21.420000000000012 39.27 39.27 0 0 0
1630 5 21.420000000000012 41.055 41.055 0 0 0
1631 1 23.205000000000005 39.27 41.055 0 0 0
1632 3 23.205000000000005 41.055 39.27 0 0 0
1633 5 21.420000000000012 39.27 42.84 0 0 0
1634 5 21.420000000000012 41.055 44.625 0 0 0
1635 5 23.205000000000005 39.27 44.625 0 0 0
1636 1 23.205000000000005 41.055 42.84 0 0 0
1637 1 21.420000000000012 39.27 46.410000000000004 0 0 0
1638 5 21.420000000000012 41.055 48.195 0 0 0
1639 5 23.205000000000005 39.27 48.195 0 0 0
1640 1 23.205000000000005 41.055 46.410000000000004 0 0 0
1641 4 21.420000000000012 39.27 49.980000000000004 0 0 0
1642 1 21.420000000000012 41.055 51.765 0 0 0
1643 4 23.205000000000005 39.27 51.765 0 0 0
1644 4 23.205000000000005 41.055 49.980000000000004 0 0 0
1645 3 21.420000000000012 39.27 53.550000000000004 0 0 0
1648 5 23.205000000000005 41.055 53.550000000000004 0 0 0
1674 5 21.420000000000012 44.625 30.345000000000002 0 0 0
1675 5 23.205000000000005 42.84 30.345000000000002 0 0 0
1676 5 23.205000000000005 44.625 28.560000000000006 0 0 0
1677 5 21.420000000000012 42.84 32.13 0 0 0
1678 4 21.420000000000012 44.625 33.915 0 0 0
1679 2 23.205000000000005 42.84 33.915 0 0 0
1680 2 23.205000000000005 44.625 32.13 0 0 0
1681 4 21.420000000000012 42.84 35.7 0 0 0
1682 4 21.420000000000012 44.625 37.485 0 0 0
1683 2 23.205000000000005 42.84 37.485 0 0 0
1684 1 23.205000000000005 44.625 35.7 0 0 0
1685 5 21.420000000000012 42.84 39.27 0 0 0
1686 3 21.420000000000012 44.625 41.055 0 0 0
1687 2 23.205000000000005 42.84 41.055 0 0 0
1688 2 23.205000000000005 44.625 39.27 0 0 0
1689 4 21.420000000000012 42.84 42.84 0 0 0
1690 2 21.420000000000012 44.625 44.625 0 0 0
1691 5 23.205000000000005 42.84 44.625 0 0 0
1692 3 23.205000000000005 44.625 42.84 0 0 0
1693 1 21.420000000000012 42.84 46.410000000000004 0 0 0
1694 2 21.420000000000012 44.625 48.195 0 0 0
1695 1 23.205000000000005 42.84 48.195 0 0 0
1696 3 23.205000000000005 44.625 46.410000000000004 0 0 0
1697 1 21.420000000000012 42.84 49.980000000000004 0 0 0
1698 3 21.420000000000012 44.625 51.765 0 0 0
1699 3 23.205000000000005 42.84 51.765 0 0 0
1700 3 23.205000000000005 44.625 49.980000000000004 0 0 0
1701 1 21.420000000000012 42.84 53.550000000000004 0 0 0
1704 3 23.205000000000005 44.625 53.550000000000004 0 0 0
1730 5 21.420000000000012 48.195 30.345000000000002 0 0 0
1731 5 23.205000000000005 46.410000000000004 30.345000000000002 0 0 0
1732 4 23.205000000000005 48.195 28.560000000000006 0 0 0
1733 4 21.420000000000012 46.410000000000004 32.13 0 0 0
1734 1 21.420000000000012 48.195 33.915 0 0 0
1735 5 23.205000000000005 46.410000000000004 33.915 0 0 0
1736 2 23.205000000000005 48.195 32.13 0 0 0
1737 2 21.420000000000012 46.410000000000004 35.7 0 0 0
1738 2 21.420000000000012 48.195 37.485 0 0 0
1739 3 23.205000000000005 46.410000000000004 37.485 0 0 0
1740 4 23.205000000000005 48.195 35.7 0 0 0
1741 3 21.420000000000012 46.410000000000004 39.27 0 0 0
1742 1 21.420000000000012 48.195 41.055 0 0 0
1743 5 23.205000000000005 46.410000000000004 41.055 0 0 0
1744 1 23.205000000000005 48.195 39.27 0 0 0
1745 5 21.420000000000012 46.410000000000004 42.84 0 0 0
1746 1 21.420000000000012 48.195 44.625 0 0 0
1747 2 23.205000000000005 46.410000000000004 44.625 0 0 0
1748 3 23.205000000000005 48.195 42.84 0 0 0
1749 1 21.420000000000012 46.410000000000004 46.410000000000004 0 0 0
1750 5 21.420000000000012 48.195 48.195 0 0 0
1751 1 23.205000000000005 46.410000000000004 48.195 0 0 0
1752 5 23.205000000000005 48.195 46.410000000000004 0 0 0
1753 5 21.420000000000012 46.410000000000004 49.980000000000004 0 0 0
1754 2 21.420000000000012 48.195 51.765 0 0 0
1755 2 23.205000000000005 46.410000000000004 51.765 0 0 0
1756 3 23.205000000000005 48.195 49.980000000000004 0 0 0
1757 5 21.420000000000012 46.410000000000004 53.550000000000004 0 0 0
1760 1 23.205000000000005 48.195 53.550000000000004 0 0 0
1786 1 21.420000000000012 51.765 30.345000000000002 0 0 0
1787 4 23.205000000000005 49.980000000000004 30.345000000000002 0 0 0
1788 1 23.205000000000005 51.765 28.560000000000006 0 0 0
1789 3 21.420000000000012 49.980000000000004 32.13 0 0 0
1790 1 21.420000000000012 51.765 33.915 0 0 0
1791 2 23.205000000000005 49.980000000000004 33.915 0 0 0
1792 4 23.205000000000005 51.765 32.13 0 0 0
1793 4 21.420000000000012 49.980000000000004 35.7 0 0 0
1794 4 21.420000000000012 51.765 37.485 0 0 0
1795 4 23.205000000000005 49.980000000000004 37.485 0 0 0
1796 5 23.205000000000005 51.765 35.7 0 0 0
1797 2 21.420000000000012 49.980000000000004 39.27 0 0 0
1798 3 21.420000000000012 51.765 41.055 0 0 0
1799 1 23.205000000000005 49.980000000000004 41.055 0 0 0
1800 4 23.205000000000005 51.765 39.27 0 0 0
1801 3 21.420000000000012 49.980000000000004 42.84 0 0 0
1802 2 21.420000000000012 51.765 44.625 0 0 0
1803 1 23.205000000000005 49.980000000000004 44.625 0 0 0
1804 3 23.205000000000005 51.765 42.84 0 0 0
1805 4 21.420000000000012 49.980000000000004 46.410000000000004 0 0 0
1806 5 21.420000000000012 51.765 48.195 0 0 0