model_files/PtAu/PtAu_30000/PtAu_521/PtAu_521_fcc_30329_temp.data (written by ASE) 

30329 	 atoms 
2  atom types
0.0                     103  xlo xhi
0.0                     103  ylo yhi
0.0                     103  zlo zhi


Atoms 

     1   1                       0      48.515999999999998      50.537499999999994
     2   1                       0      50.537499999999994      48.515999999999998
     3   1                       0      50.537499999999994      52.558999999999997
     4   1                       0      52.558999999999997      50.537499999999994
     5   1      4.0429999999999993      38.408499999999989      48.515999999999998
     6   1      4.0429999999999993      40.429999999999993      46.494500000000002
     7   1      4.0429999999999993      38.408499999999989      52.558999999999997
     8   1      4.0429999999999993      40.429999999999993      50.537499999999994
     9   1      4.0429999999999993      40.429999999999993      54.580499999999994
    10   1      4.0429999999999993      42.451499999999996      44.472999999999999
    11   1      4.0429999999999993      44.472999999999999      42.451499999999996
    12   1      2.0214999999999961      44.472999999999999      48.515999999999998
    13   1      4.0429999999999993      42.451499999999996      48.515999999999998
    14   1      4.0429999999999993      44.472999999999999      46.494500000000002
    15   1      2.0214999999999961      42.451499999999996      50.537499999999994
    16   1      2.0214999999999961      44.472999999999999      52.558999999999997
    17   1      4.0429999999999993      42.451499999999996      52.558999999999997
    18   1      4.0429999999999993      44.472999999999999      50.537499999999994
    19   1      4.0429999999999993      42.451499999999996      56.601999999999997
    20   1      4.0429999999999993      44.472999999999999      54.580499999999994
    21   1      4.0429999999999993      44.472999999999999                 58.6235
    22   1      4.0429999999999993      46.494500000000002      40.429999999999993
    23   1      4.0429999999999993      48.515999999999998      38.408499999999989
    24   1      2.0214999999999961      48.515999999999998      44.472999999999999
    25   1      4.0429999999999993      46.494500000000002      44.472999999999999
    26   1      4.0429999999999993      48.515999999999998      42.451499999999996
    27   1      2.0214999999999961      46.494500000000002      46.494500000000002
    28   1      2.0214999999999961      48.515999999999998      48.515999999999998
    29   1      4.0429999999999993      46.494500000000002      48.515999999999998
    30   1      4.0429999999999993      48.515999999999998      46.494500000000002
    31   1      2.0214999999999961      46.494500000000002      50.537499999999994
    32   1      2.0214999999999961      48.515999999999998      52.558999999999997
    33   1      4.0429999999999993      46.494500000000002      52.558999999999997
    34   1      4.0429999999999993      48.515999999999998      50.537499999999994
    35   1      2.0214999999999961      46.494500000000002      54.580499999999994
    36   1      2.0214999999999961      48.515999999999998      56.601999999999997
    37   1      4.0429999999999993      46.494500000000002      56.601999999999997
    38   1      4.0429999999999993      48.515999999999998      54.580499999999994
    39   1      4.0429999999999993      46.494500000000002      60.645000000000003
    40   1      4.0429999999999993      48.515999999999998                 58.6235
    41   1      4.0429999999999993      48.515999999999998      62.666499999999992
    42   1      4.0429999999999993      50.537499999999994      40.429999999999993
    43   1      4.0429999999999993      52.558999999999997      38.408499999999989
    44   1      2.0214999999999961      50.537499999999994      42.451499999999996
    45   1      2.0214999999999961      52.558999999999997      44.472999999999999
    46   1      4.0429999999999993      50.537499999999994      44.472999999999999
    47   1      4.0429999999999993      52.558999999999997      42.451499999999996
    48   1      2.0214999999999961      50.537499999999994      46.494500000000002
    49   1      2.0214999999999961      52.558999999999997      48.515999999999998
    50   1      4.0429999999999993      50.537499999999994      48.515999999999998
    51   1      4.0429999999999993      52.558999999999997      46.494500000000002
    52   1      2.0214999999999961      50.537499999999994      50.537499999999994
    53   1      2.0214999999999961      52.558999999999997      52.558999999999997
    54   1      4.0429999999999993      50.537499999999994      52.558999999999997
    55   1      4.0429999999999993      52.558999999999997      50.537499999999994
    56   1      2.0214999999999961      50.537499999999994      54.580499999999994
    57   1      2.0214999999999961      52.558999999999997      56.601999999999997
    58   1      4.0429999999999993      50.537499999999994      56.601999999999997
    59   1      4.0429999999999993      52.558999999999997      54.580499999999994
    60   1      2.0214999999999961      50.537499999999994                 58.6235
    61   1      4.0429999999999993      50.537499999999994      60.645000000000003
    62   1      4.0429999999999993      52.558999999999997                 58.6235
    63   1      4.0429999999999993      52.558999999999997      62.666499999999992
    64   1      4.0429999999999993      54.580499999999994      40.429999999999993
    65   1      4.0429999999999993      54.580499999999994      44.472999999999999
    66   1      4.0429999999999993      56.601999999999997      42.451499999999996
    67   1      2.0214999999999961      54.580499999999994      46.494500000000002
    68   1      2.0214999999999961      56.601999999999997      48.515999999999998
    69   1      4.0429999999999993      54.580499999999994      48.515999999999998
    70   1      4.0429999999999993      56.601999999999997      46.494500000000002
    71   1      2.0214999999999961      54.580499999999994      50.537499999999994
    72   1      2.0214999999999961      56.601999999999997      52.558999999999997
    73   1      4.0429999999999993      54.580499999999994      52.558999999999997
    74   1      4.0429999999999993      56.601999999999997      50.537499999999994
    75   1      2.0214999999999961      54.580499999999994      54.580499999999994
    76   1      4.0429999999999993      54.580499999999994      56.601999999999997
    77   1      4.0429999999999993      56.601999999999997      54.580499999999994
    78   1      4.0429999999999993      54.580499999999994      60.645000000000003
    79   1      4.0429999999999993      56.601999999999997                 58.6235
    80   1      4.0429999999999993                 58.6235      44.472999999999999
    81   1      4.0429999999999993                 58.6235      48.515999999999998
    82   1      4.0429999999999993      60.645000000000003      46.494500000000002
    83   1      2.0214999999999961                 58.6235      50.537499999999994
    84   1      4.0429999999999993                 58.6235      52.558999999999997
    85   1      4.0429999999999993      60.645000000000003      50.537499999999994
    86   1      4.0429999999999993                 58.6235      56.601999999999997
    87   1      4.0429999999999993      60.645000000000003      54.580499999999994
    88   1      4.0429999999999993      62.666499999999992      48.515999999999998
    89   1      4.0429999999999993      62.666499999999992      52.558999999999997
    90   1      8.0859999999999985      28.300999999999998      50.537499999999994
    91   1      8.0859999999999985      30.322499999999994      44.472999999999999
    92   1      8.0859999999999985      32.344000000000001      42.451499999999996
    93   1      8.0859999999999985      30.322499999999994      48.515999999999998
    94   1      8.0859999999999985      32.344000000000001      46.494500000000002
    95   1      8.0859999999999985      30.322499999999994      52.558999999999997
    96   1      8.0859999999999985      32.344000000000001      50.537499999999994
    97   1      8.0859999999999985      30.322499999999994      56.601999999999997
    98   1      8.0859999999999985      32.344000000000001      54.580499999999994
    99   1      8.0859999999999985      32.344000000000001                 58.6235
   100   1      8.0859999999999985      34.365499999999997      36.386999999999993
   101   1      8.0859999999999985      36.386999999999993      34.365499999999997
   102   1      8.0859999999999985      34.365499999999997      40.429999999999993
   103   1      8.0859999999999985      36.386999999999993      38.408499999999989
   104   1      6.0644999999999945      36.386999999999993      44.472999999999999
   105   1      8.0859999999999985      34.365499999999997      44.472999999999999
   106   1      8.0859999999999985      36.386999999999993      42.451499999999996
   107   1      6.0644999999999945      34.365499999999997      46.494500000000002
   108   1      6.0644999999999945      36.386999999999993      48.515999999999998
   109   1      8.0859999999999985      34.365499999999997      48.515999999999998
   110   1      8.0859999999999985      36.386999999999993      46.494500000000002
   111   1      6.0644999999999945      34.365499999999997      50.537499999999994
   112   1      6.0644999999999945      36.386999999999993      52.558999999999997
   113   1      8.0859999999999985      34.365499999999997      52.558999999999997
   114   1      8.0859999999999985      36.386999999999993      50.537499999999994
   115   1      6.0644999999999945      34.365499999999997      54.580499999999994
   116   1      6.0644999999999945      36.386999999999993      56.601999999999997
   117   1      8.0859999999999985      34.365499999999997      56.601999999999997
   118   1      8.0859999999999985      36.386999999999993      54.580499999999994
   119   1      8.0859999999999985      34.365499999999997      60.645000000000003
   120   1      8.0859999999999985      36.386999999999993                 58.6235
   121   1      8.0859999999999985      34.365499999999997      64.688000000000002
   122   1      8.0859999999999985      36.386999999999993      62.666499999999992
   123   1      8.0859999999999985      36.386999999999993      66.709500000000006
   124   1      8.0859999999999985      38.408499999999989      36.386999999999993
   125   1      8.0859999999999985      40.429999999999993      34.365499999999997
   126   1      6.0644999999999945      38.408499999999989      38.408499999999989
   127   1      6.0644999999999945      40.429999999999993      40.429999999999993
   128   1      8.0859999999999985      38.408499999999989      40.429999999999993
   129   1      8.0859999999999985      40.429999999999993      38.408499999999989
   130   1      6.0644999999999945      38.408499999999989      42.451499999999996
   131   1      6.0644999999999945      40.429999999999993      44.472999999999999
   132   1      8.0859999999999985      38.408499999999989      44.472999999999999
   133   1      8.0859999999999985      40.429999999999993      42.451499999999996
   134   1      6.0644999999999945      38.408499999999989      46.494500000000002
   135   1      6.0644999999999945      40.429999999999993      48.515999999999998
   136   1      8.0859999999999985      38.408499999999989      48.515999999999998
   137   1      8.0859999999999985      40.429999999999993      46.494500000000002
   138   1      6.0644999999999945      38.408499999999989      50.537499999999994
   139   1      6.0644999999999945      40.429999999999993      52.558999999999997
   140   1      8.0859999999999985      38.408499999999989      52.558999999999997
   141   1      8.0859999999999985      40.429999999999993      50.537499999999994
   142   1      6.0644999999999945      38.408499999999989      54.580499999999994
   143   1      6.0644999999999945      40.429999999999993      56.601999999999997
   144   1      8.0859999999999985      38.408499999999989      56.601999999999997
   145   1      8.0859999999999985      40.429999999999993      54.580499999999994
   146   1      6.0644999999999945      38.408499999999989                 58.6235
   147   1      6.0644999999999945      40.429999999999993      60.645000000000003
   148   1      8.0859999999999985      38.408499999999989      60.645000000000003
   149   1      8.0859999999999985      40.429999999999993                 58.6235
   150   1      6.0644999999999945      38.408499999999989      62.666499999999992
   151   1      8.0859999999999985      38.408499999999989      64.688000000000002
   152   1      8.0859999999999985      40.429999999999993      62.666499999999992
   153   1      8.0859999999999985      40.429999999999993      66.709500000000006
   154   1      8.0859999999999985      42.451499999999996      32.344000000000001
   155   1      8.0859999999999985      44.472999999999999      30.322499999999994
   156   1      6.0644999999999945      44.472999999999999      36.386999999999993
   157   1      8.0859999999999985      42.451499999999996      36.386999999999993
   158   1      8.0859999999999985      44.472999999999999      34.365499999999997
   159   1      6.0644999999999945      42.451499999999996      38.408499999999989
   160   1      6.0644999999999945      44.472999999999999      40.429999999999993
   161   1      8.0859999999999985      42.451499999999996      40.429999999999993
   162   1      8.0859999999999985      44.472999999999999      38.408499999999989
   163   1      6.0644999999999945      42.451499999999996      42.451499999999996
   164   1      6.0644999999999945      44.472999999999999      44.472999999999999
   165   1      8.0859999999999985      42.451499999999996      44.472999999999999
   166   1      8.0859999999999985      44.472999999999999      42.451499999999996
   167   1      6.0644999999999945      42.451499999999996      46.494500000000002
   168   1      6.0644999999999945      44.472999999999999      48.515999999999998
   169   1      8.0859999999999985      42.451499999999996      48.515999999999998
   170   1      8.0859999999999985      44.472999999999999      46.494500000000002
   171   1      6.0644999999999945      42.451499999999996      50.537499999999994
   172   1      6.0644999999999945      44.472999999999999      52.558999999999997
   173   1      8.0859999999999985      42.451499999999996      52.558999999999997
   174   1      8.0859999999999985      44.472999999999999      50.537499999999994
   175   1      6.0644999999999945      42.451499999999996      54.580499999999994
   176   1      6.0644999999999945      44.472999999999999      56.601999999999997
   177   1      8.0859999999999985      42.451499999999996      56.601999999999997
   178   1      8.0859999999999985      44.472999999999999      54.580499999999994
   179   1      6.0644999999999945      42.451499999999996                 58.6235
   180   1      6.0644999999999945      44.472999999999999      60.645000000000003
   181   1      8.0859999999999985      42.451499999999996      60.645000000000003
   182   1      8.0859999999999985      44.472999999999999                 58.6235
   183   1      6.0644999999999945      42.451499999999996      62.666499999999992
   184   1      6.0644999999999945      44.472999999999999      64.688000000000002
   185   1      8.0859999999999985      42.451499999999996      64.688000000000002
   186   1      8.0859999999999985      44.472999999999999      62.666499999999992
   187   1      8.0859999999999985      42.451499999999996      68.731000000000009
   188   1      8.0859999999999985      44.472999999999999      66.709500000000006
   189   1      8.0859999999999985      44.472999999999999      70.752499999999998
   190   1      8.0859999999999985      46.494500000000002      32.344000000000001
   191   1      8.0859999999999985      48.515999999999998      30.322499999999994
   192   1      6.0644999999999945      46.494500000000002      34.365499999999997
   193   1      6.0644999999999945      48.515999999999998      36.386999999999993
   194   1      8.0859999999999985      46.494500000000002      36.386999999999993
   195   1      8.0859999999999985      48.515999999999998      34.365499999999997
   196   1      6.0644999999999945      46.494500000000002      38.408499999999989
   197   1      6.0644999999999945      48.515999999999998      40.429999999999993
   198   1      8.0859999999999985      46.494500000000002      40.429999999999993
   199   1      8.0859999999999985      48.515999999999998      38.408499999999989
   200   1      6.0644999999999945      46.494500000000002      42.451499999999996
   201   1      6.0644999999999945      48.515999999999998      44.472999999999999
   202   1      8.0859999999999985      46.494500000000002      44.472999999999999
   203   1      8.0859999999999985      48.515999999999998      42.451499999999996
   204   1      6.0644999999999945      46.494500000000002      46.494500000000002
   205   1      6.0644999999999945      48.515999999999998      48.515999999999998
   206   1      8.0859999999999985      46.494500000000002      48.515999999999998
   207   1      8.0859999999999985      48.515999999999998      46.494500000000002
   208   1      6.0644999999999945      46.494500000000002      50.537499999999994
   209   1      6.0644999999999945      48.515999999999998      52.558999999999997
   210   1      8.0859999999999985      46.494500000000002      52.558999999999997
   211   1      8.0859999999999985      48.515999999999998      50.537499999999994
   212   1      6.0644999999999945      46.494500000000002      54.580499999999994
   213   1      6.0644999999999945      48.515999999999998      56.601999999999997
   214   1      8.0859999999999985      46.494500000000002      56.601999999999997
   215   1      8.0859999999999985      48.515999999999998      54.580499999999994
   216   1      6.0644999999999945      46.494500000000002                 58.6235
   217   1      6.0644999999999945      48.515999999999998      60.645000000000003
   218   1      8.0859999999999985      46.494500000000002      60.645000000000003
   219   1      8.0859999999999985      48.515999999999998                 58.6235
   220   1      6.0644999999999945      46.494500000000002      62.666499999999992
   221   1      6.0644999999999945      48.515999999999998      64.688000000000002
   222   1      8.0859999999999985      46.494500000000002      64.688000000000002
   223   1      8.0859999999999985      48.515999999999998      62.666499999999992
   224   1      6.0644999999999945      46.494500000000002      66.709500000000006
   225   1      8.0859999999999985      46.494500000000002      68.731000000000009
   226   1      8.0859999999999985      48.515999999999998      66.709500000000006
   227   1      8.0859999999999985      48.515999999999998      70.752499999999998
   228   1      8.0859999999999985      50.537499999999994      28.300999999999998
   229   1      8.0859999999999985      50.537499999999994      32.344000000000001
   230   1      8.0859999999999985      52.558999999999997      30.322499999999994
   231   1      6.0644999999999945      50.537499999999994      34.365499999999997
   232   1      6.0644999999999945      52.558999999999997      36.386999999999993
   233   1      8.0859999999999985      50.537499999999994      36.386999999999993
   234   1      8.0859999999999985      52.558999999999997      34.365499999999997
   235   1      6.0644999999999945      50.537499999999994      38.408499999999989
   236   1      6.0644999999999945      52.558999999999997      40.429999999999993
   237   1      8.0859999999999985      50.537499999999994      40.429999999999993
   238   1      8.0859999999999985      52.558999999999997      38.408499999999989
   239   1      6.0644999999999945      50.537499999999994      42.451499999999996
   240   1      6.0644999999999945      52.558999999999997      44.472999999999999
   241   1      8.0859999999999985      50.537499999999994      44.472999999999999
   242   1      8.0859999999999985      52.558999999999997      42.451499999999996
   243   1      6.0644999999999945      50.537499999999994      46.494500000000002
   244   1      6.0644999999999945      52.558999999999997      48.515999999999998
   245   1      8.0859999999999985      50.537499999999994      48.515999999999998
   246   1      8.0859999999999985      52.558999999999997      46.494500000000002
   247   1      6.0644999999999945      50.537499999999994      50.537499999999994
   248   1      6.0644999999999945      52.558999999999997      52.558999999999997
   249   1      8.0859999999999985      50.537499999999994      52.558999999999997
   250   1      8.0859999999999985      52.558999999999997      50.537499999999994
   251   1      6.0644999999999945      50.537499999999994      54.580499999999994
   252   1      6.0644999999999945      52.558999999999997      56.601999999999997
   253   1      8.0859999999999985      50.537499999999994      56.601999999999997
   254   1      8.0859999999999985      52.558999999999997      54.580499999999994
   255   1      6.0644999999999945      50.537499999999994                 58.6235
   256   1      6.0644999999999945      52.558999999999997      60.645000000000003
   257   1      8.0859999999999985      50.537499999999994      60.645000000000003
   258   1      8.0859999999999985      52.558999999999997                 58.6235
   259   1      6.0644999999999945      50.537499999999994      62.666499999999992
   260   1      6.0644999999999945      52.558999999999997      64.688000000000002
   261   1      8.0859999999999985      50.537499999999994      64.688000000000002
   262   1      8.0859999999999985      52.558999999999997      62.666499999999992
   263   1      6.0644999999999945      50.537499999999994      66.709500000000006
   264   1      8.0859999999999985      50.537499999999994      68.731000000000009
   265   1      8.0859999999999985      52.558999999999997      66.709500000000006
   266   1      8.0859999999999985      50.537499999999994      72.773999999999987
   267   1      8.0859999999999985      52.558999999999997      70.752499999999998
   268   1      8.0859999999999985      54.580499999999994      32.344000000000001
   269   1      8.0859999999999985      56.601999999999997      30.322499999999994
   270   1      6.0644999999999945      54.580499999999994      34.365499999999997
   271   1      6.0644999999999945      56.601999999999997      36.386999999999993
   272   1      8.0859999999999985      54.580499999999994      36.386999999999993
   273   1      8.0859999999999985      56.601999999999997      34.365499999999997
   274   1      6.0644999999999945      54.580499999999994      38.408499999999989
   275   1      6.0644999999999945      56.601999999999997      40.429999999999993
   276   1      8.0859999999999985      54.580499999999994      40.429999999999993
   277   1      8.0859999999999985      56.601999999999997      38.408499999999989
   278   1      6.0644999999999945      54.580499999999994      42.451499999999996
   279   1      6.0644999999999945      56.601999999999997      44.472999999999999
   280   1      8.0859999999999985      54.580499999999994      44.472999999999999
   281   1      8.0859999999999985      56.601999999999997      42.451499999999996
   282   1      6.0644999999999945      54.580499999999994      46.494500000000002
   283   1      6.0644999999999945      56.601999999999997      48.515999999999998
   284   1      8.0859999999999985      54.580499999999994      48.515999999999998
   285   1      8.0859999999999985      56.601999999999997      46.494500000000002
   286   1      6.0644999999999945      54.580499999999994      50.537499999999994
   287   1      6.0644999999999945      56.601999999999997      52.558999999999997
   288   1      8.0859999999999985      54.580499999999994      52.558999999999997
   289   1      8.0859999999999985      56.601999999999997      50.537499999999994
   290   1      6.0644999999999945      54.580499999999994      54.580499999999994
   291   1      6.0644999999999945      56.601999999999997      56.601999999999997
   292   1      8.0859999999999985      54.580499999999994      56.601999999999997
   293   1      8.0859999999999985      56.601999999999997      54.580499999999994
   294   1      6.0644999999999945      54.580499999999994                 58.6235
   295   1      6.0644999999999945      56.601999999999997      60.645000000000003
   296   1      8.0859999999999985      54.580499999999994      60.645000000000003
   297   1      8.0859999999999985      56.601999999999997                 58.6235
   298   1      6.0644999999999945      54.580499999999994      62.666499999999992
   299   1      6.0644999999999945      56.601999999999997      64.688000000000002
   300   1      8.0859999999999985      54.580499999999994      64.688000000000002
   301   1      8.0859999999999985      56.601999999999997      62.666499999999992
   302   1      6.0644999999999945      54.580499999999994      66.709500000000006
   303   1      8.0859999999999985      54.580499999999994      68.731000000000009
   304   1      8.0859999999999985      56.601999999999997      66.709500000000006
   305   1      8.0859999999999985      56.601999999999997      70.752499999999998
   306   1      8.0859999999999985                 58.6235      32.344000000000001
   307   1      8.0859999999999985                 58.6235      36.386999999999993
   308   1      8.0859999999999985      60.645000000000003      34.365499999999997
   309   1      6.0644999999999945                 58.6235      38.408499999999989
   310   1      6.0644999999999945      60.645000000000003      40.429999999999993
   311   1      8.0859999999999985                 58.6235      40.429999999999993
   312   1      8.0859999999999985      60.645000000000003      38.408499999999989
   313   1      6.0644999999999945                 58.6235      42.451499999999996
   314   1      6.0644999999999945      60.645000000000003      44.472999999999999
   315   1      8.0859999999999985                 58.6235      44.472999999999999
   316   1      8.0859999999999985      60.645000000000003      42.451499999999996
   317   1      6.0644999999999945                 58.6235      46.494500000000002
   318   1      6.0644999999999945      60.645000000000003      48.515999999999998
   319   1      8.0859999999999985                 58.6235      48.515999999999998
   320   1      8.0859999999999985      60.645000000000003      46.494500000000002
   321   1      6.0644999999999945                 58.6235      50.537499999999994
   322   1      6.0644999999999945      60.645000000000003      52.558999999999997
   323   1      8.0859999999999985                 58.6235      52.558999999999997
   324   1      8.0859999999999985      60.645000000000003      50.537499999999994
   325   1      6.0644999999999945                 58.6235      54.580499999999994
   326   1      6.0644999999999945      60.645000000000003      56.601999999999997
   327   1      8.0859999999999985                 58.6235      56.601999999999997
   328   1      8.0859999999999985      60.645000000000003      54.580499999999994
   329   1      6.0644999999999945                 58.6235                 58.6235
   330   1      6.0644999999999945      60.645000000000003      60.645000000000003
   331   1      8.0859999999999985                 58.6235      60.645000000000003
   332   1      8.0859999999999985      60.645000000000003                 58.6235
   333   1      6.0644999999999945                 58.6235      62.666499999999992
   334   1      8.0859999999999985                 58.6235      64.688000000000002
   335   1      8.0859999999999985      60.645000000000003      62.666499999999992
   336   1      8.0859999999999985                 58.6235      68.731000000000009
   337   1      8.0859999999999985      60.645000000000003      66.709500000000006
   338   1      8.0859999999999985      62.666499999999992      36.386999999999993
   339   1      8.0859999999999985      64.688000000000002      34.365499999999997
   340   1      6.0644999999999945      62.666499999999992      38.408499999999989
   341   1      8.0859999999999985      62.666499999999992      40.429999999999993
   342   1      8.0859999999999985      64.688000000000002      38.408499999999989
   343   1      6.0644999999999945      62.666499999999992      42.451499999999996
   344   1      6.0644999999999945      64.688000000000002      44.472999999999999
   345   1      8.0859999999999985      62.666499999999992      44.472999999999999
   346   1      8.0859999999999985      64.688000000000002      42.451499999999996
   347   1      6.0644999999999945      62.666499999999992      46.494500000000002
   348   1      6.0644999999999945      64.688000000000002      48.515999999999998
   349   1      8.0859999999999985      62.666499999999992      48.515999999999998
   350   1      8.0859999999999985      64.688000000000002      46.494500000000002
   351   1      6.0644999999999945      62.666499999999992      50.537499999999994
   352   1      6.0644999999999945      64.688000000000002      52.558999999999997
   353   1      8.0859999999999985      62.666499999999992      52.558999999999997
   354   1      8.0859999999999985      64.688000000000002      50.537499999999994
   355   1      6.0644999999999945      62.666499999999992      54.580499999999994
   356   1      6.0644999999999945      64.688000000000002      56.601999999999997
   357   1      8.0859999999999985      62.666499999999992      56.601999999999997
   358   1      8.0859999999999985      64.688000000000002      54.580499999999994