model_files/Au/Au_30000/Au_510/data.Au_510_fcc_29899 (written by ASE) 

29899 	 atoms 
1  atom types
0.0                      91  xlo xhi
0.0                      91  ylo yhi
0.0                      91  zlo zhi


Atoms 

     1   1      2.0399999999999996                   34.68      36.720000000000006
     2   1      2.0399999999999996                   34.68      40.800000000000004
     3   1      2.0399999999999996                   34.68      44.880000000000003
     4   1      2.0399999999999996                   34.68      48.960000000000001
     5   1      2.0399999999999996                   34.68      53.040000000000006
     6   1      2.0399999999999996      36.720000000000006                   34.68
     7   1      2.0399999999999996      36.720000000000006      38.760000000000005
     8   1      2.0399999999999996      38.760000000000005      36.720000000000006
     9   1      2.0399999999999996      36.720000000000006      42.840000000000003
    10   1      2.0399999999999996      38.760000000000005      40.800000000000004
    11   1      2.0399999999999996      36.720000000000006      46.920000000000002
    12   1      2.0399999999999996      38.760000000000005      44.880000000000003
    13   1      2.0399999999999996      36.720000000000006                      51
    14   1      2.0399999999999996      38.760000000000005      48.960000000000001
    15   1      2.0399999999999996      36.720000000000006      55.080000000000005
    16   1      2.0399999999999996      38.760000000000005      53.040000000000006
    17   1      2.0399999999999996      40.800000000000004                   34.68
    18   1      2.0399999999999996      40.800000000000004      38.760000000000005
    19   1      2.0399999999999996      42.840000000000003      36.720000000000006
    20   1      2.0399999999999996      40.800000000000004      42.840000000000003
    21   1      2.0399999999999996      42.840000000000003      40.800000000000004
    22   1      2.0399999999999996      40.800000000000004      46.920000000000002
    23   1      2.0399999999999996      42.840000000000003      44.880000000000003
    24   1      2.0399999999999996      40.800000000000004                      51
    25   1      2.0399999999999996      42.840000000000003      48.960000000000001
    26   1      2.0399999999999996      40.800000000000004      55.080000000000005
    27   1      2.0399999999999996      42.840000000000003      53.040000000000006
    28   1      2.0399999999999996      44.880000000000003                   34.68
    29   1      2.0399999999999996      44.880000000000003      38.760000000000005
    30   1      2.0399999999999996      46.920000000000002      36.720000000000006
    31   1      2.0399999999999996      44.880000000000003      42.840000000000003
    32   1      2.0399999999999996      46.920000000000002      40.800000000000004
    33   1                       0      44.880000000000003      44.880000000000003
    34   1      2.0399999999999996      44.880000000000003      46.920000000000002
    35   1      2.0399999999999996      46.920000000000002      44.880000000000003
    36   1      2.0399999999999996      44.880000000000003                      51
    37   1      2.0399999999999996      46.920000000000002      48.960000000000001
    38   1      2.0399999999999996      44.880000000000003      55.080000000000005
    39   1      2.0399999999999996      46.920000000000002      53.040000000000006
    40   1      2.0399999999999996      48.960000000000001                   34.68
    41   1      2.0399999999999996      48.960000000000001      38.760000000000005
    42   1      2.0399999999999996                      51      36.720000000000006
    43   1      2.0399999999999996      48.960000000000001      42.840000000000003
    44   1      2.0399999999999996                      51      40.800000000000004
    45   1      2.0399999999999996      48.960000000000001      46.920000000000002
    46   1      2.0399999999999996                      51      44.880000000000003
    47   1      2.0399999999999996      48.960000000000001                      51
    48   1      2.0399999999999996                      51      48.960000000000001
    49   1      2.0399999999999996      48.960000000000001      55.080000000000005
    50   1      2.0399999999999996                      51      53.040000000000006
    51   1      2.0399999999999996      53.040000000000006                   34.68
    52   1      2.0399999999999996      53.040000000000006      38.760000000000005
    53   1      2.0399999999999996      55.080000000000005      36.720000000000006
    54   1      2.0399999999999996      53.040000000000006      42.840000000000003
    55   1      2.0399999999999996      55.080000000000005      40.800000000000004
    56   1      2.0399999999999996      53.040000000000006      46.920000000000002
    57   1      2.0399999999999996      55.080000000000005      44.880000000000003
    58   1      2.0399999999999996      53.040000000000006                      51
    59   1      2.0399999999999996      55.080000000000005      48.960000000000001
    60   1      2.0399999999999996      53.040000000000006      55.080000000000005
    61   1      2.0399999999999996      55.080000000000005      53.040000000000006
    62   1      6.1199999999999974      14.280000000000001                   16.32
    63   1      6.1199999999999974      14.280000000000001      20.400000000000002
    64   1      6.1199999999999974      14.280000000000001      24.480000000000008
    65   1      6.1199999999999974      14.280000000000001      28.560000000000002
    66   1      6.1199999999999974      14.280000000000001      32.640000000000001
    67   1      6.1199999999999974      14.280000000000001      36.720000000000006
    68   1      6.1199999999999974      14.280000000000001      40.800000000000004
    69   1      6.1199999999999974      14.280000000000001      44.880000000000003
    70   1      6.1199999999999974      14.280000000000001      48.960000000000001
    71   1      6.1199999999999974      14.280000000000001      53.040000000000006
    72   1      6.1199999999999974      14.280000000000001      57.120000000000005
    73   1      6.1199999999999974      14.280000000000001      61.200000000000003
    74   1      6.1199999999999974      14.280000000000001      65.280000000000001
    75   1      6.1199999999999974      14.280000000000001      69.359999999999999
    76   1      6.1199999999999974      14.280000000000001      73.440000000000012
    77   1      6.1199999999999974                   16.32      14.280000000000001
    78   1      6.1199999999999974                   16.32      18.360000000000003
    79   1      6.1199999999999974      18.360000000000003                   16.32
    80   1      6.1199999999999974                   16.32      22.440000000000001
    81   1      6.1199999999999974      18.360000000000003      20.400000000000002
    82   1      6.1199999999999974                   16.32      26.520000000000003
    83   1      6.1199999999999974      18.360000000000003      24.480000000000008
    84   1      6.1199999999999974                   16.32      30.600000000000001
    85   1      6.1199999999999974      18.360000000000003      28.560000000000002
    86   1      6.1199999999999974                   16.32                   34.68
    87   1      6.1199999999999974      18.360000000000003      32.640000000000001
    88   1      6.1199999999999974                   16.32      38.760000000000005
    89   1      6.1199999999999974      18.360000000000003      36.720000000000006
    90   1      6.1199999999999974                   16.32      42.840000000000003
    91   1      6.1199999999999974      18.360000000000003      40.800000000000004
    92   1      6.1199999999999974                   16.32      46.920000000000002
    93   1      6.1199999999999974      18.360000000000003      44.880000000000003
    94   1      6.1199999999999974                   16.32                      51
    95   1      6.1199999999999974      18.360000000000003      48.960000000000001
    96   1      6.1199999999999974                   16.32      55.080000000000005
    97   1      6.1199999999999974      18.360000000000003      53.040000000000006
    98   1      6.1199999999999974                   16.32      59.160000000000004
    99   1      6.1199999999999974      18.360000000000003      57.120000000000005
   100   1      6.1199999999999974                   16.32      63.240000000000016
   101   1      6.1199999999999974      18.360000000000003      61.200000000000003
   102   1      6.1199999999999974                   16.32      67.320000000000007
   103   1      6.1199999999999974      18.360000000000003      65.280000000000001
   104   1      6.1199999999999974                   16.32      71.400000000000006
   105   1      6.1199999999999974      18.360000000000003      69.359999999999999
   106   1      6.1199999999999974                   16.32      75.480000000000004
   107   1      6.1199999999999974      18.360000000000003      73.440000000000012
   108   1      6.1199999999999974      20.400000000000002      14.280000000000001
   109   1      6.1199999999999974      20.400000000000002      18.360000000000003
   110   1      6.1199999999999974      22.440000000000001                   16.32
   111   1      6.1199999999999974      20.400000000000002      22.440000000000001
   112   1      6.1199999999999974      22.440000000000001      20.400000000000002
   113   1      6.1199999999999974      20.400000000000002      26.520000000000003
   114   1      6.1199999999999974      22.440000000000001      24.480000000000008
   115   1      6.1199999999999974      20.400000000000002      30.600000000000001
   116   1      6.1199999999999974      22.440000000000001      28.560000000000002
   117   1      6.1199999999999974      20.400000000000002                   34.68
   118   1      6.1199999999999974      22.440000000000001      32.640000000000001
   119   1      6.1199999999999974      20.400000000000002      38.760000000000005
   120   1      6.1199999999999974      22.440000000000001      36.720000000000006
   121   1      6.1199999999999974      20.400000000000002      42.840000000000003
   122   1      6.1199999999999974      22.440000000000001      40.800000000000004
   123   1      6.1199999999999974      20.400000000000002      46.920000000000002
   124   1      6.1199999999999974      22.440000000000001      44.880000000000003
   125   1      6.1199999999999974      20.400000000000002                      51
   126   1      6.1199999999999974      22.440000000000001      48.960000000000001
   127   1      6.1199999999999974      20.400000000000002      55.080000000000005
   128   1      6.1199999999999974      22.440000000000001      53.040000000000006
   129   1      6.1199999999999974      20.400000000000002      59.160000000000004
   130   1      6.1199999999999974      22.440000000000001      57.120000000000005
   131   1      6.1199999999999974      20.400000000000002      63.240000000000016
   132   1      6.1199999999999974      22.440000000000001      61.200000000000003
   133   1      6.1199999999999974      20.400000000000002      67.320000000000007
   134   1      6.1199999999999974      22.440000000000001      65.280000000000001
   135   1      6.1199999999999974      20.400000000000002      71.400000000000006
   136   1      6.1199999999999974      22.440000000000001      69.359999999999999
   137   1      6.1199999999999974      20.400000000000002      75.480000000000004
   138   1      6.1199999999999974      22.440000000000001      73.440000000000012
   139   1      6.1199999999999974      24.480000000000008      14.280000000000001
   140   1      6.1199999999999974      24.480000000000008      18.360000000000003
   141   1      6.1199999999999974      26.520000000000003                   16.32
   142   1      6.1199999999999974      24.480000000000008      22.440000000000001
   143   1      6.1199999999999974      26.520000000000003      20.400000000000002
   144   1      4.0800000000000054      24.480000000000008      24.480000000000008
   145   1      4.0800000000000054      26.520000000000003      26.520000000000003
   146   1      6.1199999999999974      24.480000000000008      26.520000000000003
   147   1      6.1199999999999974      26.520000000000003      24.480000000000008
   148   1      4.0800000000000054      24.480000000000008      28.560000000000002
   149   1      4.0800000000000054      26.520000000000003      30.600000000000001
   150   1      6.1199999999999974      24.480000000000008      30.600000000000001
   151   1      6.1199999999999974      26.520000000000003      28.560000000000002
   152   1      4.0800000000000054      24.480000000000008      32.640000000000001
   153   1      4.0800000000000054      26.520000000000003                   34.68
   154   1      6.1199999999999974      24.480000000000008                   34.68
   155   1      6.1199999999999974      26.520000000000003      32.640000000000001
   156   1      4.0800000000000054      24.480000000000008      36.720000000000006
   157   1      4.0800000000000054      26.520000000000003      38.760000000000005
   158   1      6.1199999999999974      24.480000000000008      38.760000000000005
   159   1      6.1199999999999974      26.520000000000003      36.720000000000006
   160   1      4.0800000000000054      24.480000000000008      40.800000000000004
   161   1      4.0800000000000054      26.520000000000003      42.840000000000003
   162   1      6.1199999999999974      24.480000000000008      42.840000000000003
   163   1      6.1199999999999974      26.520000000000003      40.800000000000004
   164   1      4.0800000000000054      24.480000000000008      44.880000000000003
   165   1      4.0800000000000054      26.520000000000003      46.920000000000002
   166   1      6.1199999999999974      24.480000000000008      46.920000000000002
   167   1      6.1199999999999974      26.520000000000003      44.880000000000003
   168   1      4.0800000000000054      24.480000000000008      48.960000000000001
   169   1      4.0800000000000054      26.520000000000003                      51
   170   1      6.1199999999999974      24.480000000000008                      51
   171   1      6.1199999999999974      26.520000000000003      48.960000000000001
   172   1      4.0800000000000054      24.480000000000008      53.040000000000006
   173   1      4.0800000000000054      26.520000000000003      55.080000000000005
   174   1      6.1199999999999974      24.480000000000008      55.080000000000005
   175   1      6.1199999999999974      26.520000000000003      53.040000000000006
   176   1      4.0800000000000054      24.480000000000008      57.120000000000005
   177   1      4.0800000000000054      26.520000000000003      59.160000000000004
   178   1      6.1199999999999974      24.480000000000008      59.160000000000004
   179   1      6.1199999999999974      26.520000000000003      57.120000000000005
   180   1      4.0800000000000054      24.480000000000008      61.200000000000003
   181   1      4.0800000000000054      26.520000000000003      63.240000000000016
   182   1      6.1199999999999974      24.480000000000008      63.240000000000016
   183   1      6.1199999999999974      26.520000000000003      61.200000000000003
   184   1      4.0800000000000054      24.480000000000008      65.280000000000001
   185   1      6.1199999999999974      24.480000000000008      67.320000000000007
   186   1      6.1199999999999974      26.520000000000003      65.280000000000001
   187   1      6.1199999999999974      24.480000000000008      71.400000000000006
   188   1      6.1199999999999974      26.520000000000003      69.359999999999999
   189   1      6.1199999999999974      24.480000000000008      75.480000000000004
   190   1      6.1199999999999974      26.520000000000003      73.440000000000012
   191   1      6.1199999999999974      28.560000000000002      14.280000000000001
   192   1      6.1199999999999974      28.560000000000002      18.360000000000003
   193   1      6.1199999999999974      30.600000000000001                   16.32
   194   1      6.1199999999999974      28.560000000000002      22.440000000000001
   195   1      6.1199999999999974      30.600000000000001      20.400000000000002
   196   1      4.0800000000000054      28.560000000000002      24.480000000000008
   197   1      4.0800000000000054      30.600000000000001      26.520000000000003
   198   1      6.1199999999999974      28.560000000000002      26.520000000000003
   199   1      6.1199999999999974      30.600000000000001      24.480000000000008
   200   1      4.0800000000000054      28.560000000000002      28.560000000000002
   201   1      4.0800000000000054      30.600000000000001      30.600000000000001
   202   1      6.1199999999999974      28.560000000000002      30.600000000000001
   203   1      6.1199999999999974      30.600000000000001      28.560000000000002
   204   1      4.0800000000000054      28.560000000000002      32.640000000000001
   205   1      4.0800000000000054      30.600000000000001                   34.68
   206   1      6.1199999999999974      28.560000000000002                   34.68
   207   1      6.1199999999999974      30.600000000000001      32.640000000000001
   208   1      4.0800000000000054      28.560000000000002      36.720000000000006
   209   1      4.0800000000000054      30.600000000000001      38.760000000000005
   210   1      6.1199999999999974      28.560000000000002      38.760000000000005
   211   1      6.1199999999999974      30.600000000000001      36.720000000000006
   212   1      4.0800000000000054      28.560000000000002      40.800000000000004
   213   1      4.0800000000000054      30.600000000000001      42.840000000000003
   214   1      6.1199999999999974      28.560000000000002      42.840000000000003
   215   1      6.1199999999999974      30.600000000000001      40.800000000000004
   216   1      4.0800000000000054      28.560000000000002      44.880000000000003
   217   1      4.0800000000000054      30.600000000000001      46.920000000000002
   218   1      6.1199999999999974      28.560000000000002      46.920000000000002
   219   1      6.1199999999999974      30.600000000000001      44.880000000000003
   220   1      4.0800000000000054      28.560000000000002      48.960000000000001
   221   1      4.0800000000000054      30.600000000000001                      51
   222   1      6.1199999999999974      28.560000000000002                      51
   223   1      6.1199999999999974      30.600000000000001      48.960000000000001
   224   1      4.0800000000000054      28.560000000000002      53.040000000000006
   225   1      4.0800000000000054      30.600000000000001      55.080000000000005
   226   1      6.1199999999999974      28.560000000000002      55.080000000000005
   227   1      6.1199999999999974      30.600000000000001      53.040000000000006
   228   1      4.0800000000000054      28.560000000000002      57.120000000000005
   229   1      4.0800000000000054      30.600000000000001      59.160000000000004
   230   1      6.1199999999999974      28.560000000000002      59.160000000000004
   231   1      6.1199999999999974      30.600000000000001      57.120000000000005
   232   1      4.0800000000000054      28.560000000000002      61.200000000000003
   233   1      4.0800000000000054      30.600000000000001      63.240000000000016
   234   1      6.1199999999999974      28.560000000000002      63.240000000000016
   235   1      6.1199999999999974      30.600000000000001      61.200000000000003
   236   1      4.0800000000000054      28.560000000000002      65.280000000000001
   237   1      6.1199999999999974      28.560000000000002      67.320000000000007
   238   1      6.1199999999999974      30.600000000000001      65.280000000000001
   239   1      6.1199999999999974      28.560000000000002      71.400000000000006
   240   1      6.1199999999999974      30.600000000000001      69.359999999999999
   241   1      6.1199999999999974      28.560000000000002      75.480000000000004
   242   1      6.1199999999999974      30.600000000000001      73.440000000000012
   243   1      6.1199999999999974      32.640000000000001      14.280000000000001
   244   1      6.1199999999999974      32.640000000000001      18.360000000000003
   245   1      6.1199999999999974                   34.68                   16.32
   246   1      6.1199999999999974      32.640000000000001      22.440000000000001
   247   1      6.1199999999999974                   34.68      20.400000000000002
   248   1      4.0800000000000054      32.640000000000001      24.480000000000008
   249   1      4.0800000000000054                   34.68      26.520000000000003
   250   1      6.1199999999999974      32.640000000000001      26.520000000000003
   251   1      6.1199999999999974                   34.68      24.480000000000008
   252   1      4.0800000000000054      32.640000000000001      28.560000000000002
   253   1      4.0800000000000054                   34.68      30.600000000000001
   254   1      6.1199999999999974      32.640000000000001      30.600000000000001
   255   1      6.1199999999999974                   34.68      28.560000000000002
   256   1      4.0800000000000054      32.640000000000001      32.640000000000001
   257   1      4.0800000000000054                   34.68                   34.68
   258   1      6.1199999999999974      32.640000000000001                   34.68
   259   1      6.1199999999999974                   34.68      32.640000000000001
   260   1      4.0800000000000054      32.640000000000001      36.720000000000006
   261   1      4.0800000000000054                   34.68      38.760000000000005
   262   1      6.1199999999999974      32.640000000000001      38.760000000000005
   263   1      6.1199999999999974                   34.68      36.720000000000006
   264   1      4.0800000000000054      32.640000000000001      40.800000000000004
   265   1      4.0800000000000054                   34.68      42.840000000000003
   266   1      6.1199999999999974      32.640000000000001      42.840000000000003
   267   1      6.1199999999999974                   34.68      40.800000000000004
   268   1      4.0800000000000054      32.640000000000001      44.880000000000003
   269   1      4.0800000000000054                   34.68      46.920000000000002
   270   1      6.1199999999999974      32.640000000000001      46.920000000000002
   271   1      6.1199999999999974                   34.68      44.880000000000003
   272   1      4.0800000000000054      32.640000000000001      48.960000000000001
   273   1      4.0800000000000054                   34.68                      51
   274   1      6.1199999999999974      32.640000000000001                      51
   275   1      6.1199999999999974                   34.68      48.960000000000001
   276   1      4.0800000000000054      32.640000000000001      53.040000000000006
   277   1      4.0800000000000054                   34.68      55.080000000000005
   278   1      6.1199999999999974      32.640000000000001      55.080000000000005
   279   1      6.1199999999999974                   34.68      53.040000000000006
   280   1      4.0800000000000054      32.640000000000001      57.120000000000005
   281   1      4.0800000000000054                   34.68      59.160000000000004
   282   1      6.1199999999999974      32.640000000000001      59.160000000000004
   283   1      6.1199999999999974                   34.68      57.120000000000005
   284   1      4.0800000000000054      32.640000000000001      61.200000000000003
   285   1      4.0800000000000054                   34.68      63.240000000000016
   286   1      6.1199999999999974      32.640000000000001      63.240000000000016
   287   1      6.1199999999999974                   34.68      61.200000000000003
   288   1      4.0800000000000054      32.640000000000001      65.280000000000001
   289   1      6.1199999999999974      32.640000000000001      67.320000000000007
   290   1      6.1199999999999974                   34.68      65.280000000000001
   291   1      6.1199999999999974      32.640000000000001      71.400000000000006
   292   1      6.1199999999999974                   34.68      69.359999999999999
   293   1      6.1199999999999974      32.640000000000001      75.480000000000004
   294   1      6.1199999999999974                   34.68      73.440000000000012
   295   1      6.1199999999999974      36.720000000000006      14.280000000000001
   296   1      6.1199999999999974      36.720000000000006      18.360000000000003
   297   1      6.1199999999999974      38.760000000000005                   16.32
   298   1      6.1199999999999974      36.720000000000006      22.440000000000001
   299   1      6.1199999999999974      38.760000000000005      20.400000000000002
   300   1      4.0800000000000054      36.720000000000006      24.480000000000008
   301   1      4.0800000000000054      38.760000000000005      26.520000000000003
   302   1      6.1199999999999974      36.720000000000006      26.520000000000003
   303   1      6.1199999999999974      38.760000000000005      24.480000000000008
   304   1      4.0800000000000054      36.720000000000006      28.560000000000002
   305   1      4.0800000000000054      38.760000000000005      30.600000000000001
   306   1      6.1199999999999974      36.720000000000006      30.600000000000001
   307   1      6.1199999999999974      38.760000000000005      28.560000000000002
   308   1      4.0800000000000054      36.720000000000006      32.640000000000001
   309   1      4.0800000000000054      38.760000000000005                   34.68
   310   1      6.1199999999999974      36.720000000000006                   34.68
   311   1      6.1199999999999974      38.760000000000005      32.640000000000001
   312   1      4.0800000000000054      36.720000000000006      36.720000000000006
   313   1      4.0800000000000054      38.760000000000005      38.760000000000005
   314   1      6.1199999999999974      36.720000000000006      38.760000000000005
   315   1      6.1199999999999974      38.760000000000005      36.720000000000006
   316   1      4.0800000000000054      36.720000000000006      40.800000000000004
   317   1      4.0800000000000054      38.760000000000005      42.840000000000003
   318   1      6.1199999999999974      36.720000000000006      42.840000000000003
   319   1      6.1199999999999974      38.760000000000005      40.800000000000004
   320   1      4.0800000000000054      36.720000000000006      44.880000000000003
   321   1      4.0800000000000054      38.760000000000005      46.920000000000002
   322   1      6.1199999999999974      36.720000000000006      46.920000000000002
   323   1      6.1199999999999974      38.760000000000005      44.880000000000003
   324   1      4.0800000000000054      36.720000000000006      48.960000000000001
   325   1      4.0800000000000054      38.760000000000005                      51
   326   1      6.1199999999999974      36.720000000000006                      51
   327   1      6.1199999999999974      38.760000000000005      48.960000000000001
   328   1      4.0800000000000054      36.720000000000006      53.040000000000006
   329   1      4.0800000000000054      38.760000000000005      55.080000000000005
   330   1      6.1199999999999974      36.720000000000006      55.080000000000005
   331   1      6.1199999999999974      38.760000000000005      53.040000000000006
   332   1      4.0800000000000054      36.720000000000006      57.120000000000005
   333   1      4.0800000000000054      38.760000000000005      59.160000000000004
   334   1      6.1199999999999974      36.720000000000006      59.160000000000004
   335   1      6.1199999999999974      38.760000000000005      57.120000000000005
   336   1      4.0800000000000054      36.720000000000006      61.200000000000003
   337   1      4.0800000000000054      38.760000000000005      63.240000000000016
   338   1      6.1199999999999974      36.720000000000006      63.240000000000016
   339   1      6.1199999999999974      38.760000000000005      61.200000000000003
   340   1      4.0800000000000054      36.720000000000006      65.280000000000001
   341   1      6.1199999999999974      36.720000000000006      67.320000000000007
   342   1      6.1199999999999974      38.760000000000005      65.280000000000001
   343   1      6.1199999999999974      36.720000000000006      71.400000000000006
   344   1      6.1199999999999974      38.760000000000005      69.359999999999999
   345   1      6.1199999999999974      36.720000000000006      75.480000000000004
   346   1      6.1199999999999974      38.760000000000005      73.440000000000012
   347   1      6.1199999999999974      40.800000000000004      14.280000000000001
   348   1      6.1199999999999974      40.800000000000004      18.360000000000003
   349   1      6.1199999999999974      42.840000000000003                   16.32
   350   1      6.1199999999999974      40.800000000000004      22.440000000000001
   351   1      6.1199999999999974      42.840000000000003      20.400000000000002
   352   1      4.0800000000000054      40.800000000000004      24.480000000000008
   353   1      4.0800000000000054      42.840000000000003      26.520000000000003
   354   1      6.1199999999999974      40.800000000000004      26.520000000000003
   355   1      6.1199999999999974      42.840000000000003      24.480000000000008
   356   1      4.0800000000000054      40.800000000000004      28.560000000000002
   357   1      4.0800000000000054      42.840000000000003      30.600000000000001
   358   1      6.1199999999999974      40.800000000000004      30.600000000000001