model_files/Pd/Pd_30000/Pd_553/data.Pd_553_fcc_29881 (written by ASE) 

29881 	 atoms 
1  atom types
0.0                     124  xlo xhi
0.0                     124  ylo yhi
0.0                     124  zlo zhi


Atoms 

     1   1  1.4210854715202004e-14      60.295000000000016      60.295000000000016
     2   1      1.9450000000000143      58.350000000000016      60.295000000000016
     3   1      1.9450000000000143      60.295000000000016      58.350000000000016
     4   1  1.4210854715202004e-14      60.295000000000016      64.185000000000002
     5   1      1.9450000000000143      58.350000000000016      64.185000000000002
     6   1      1.9450000000000143      60.295000000000016      62.240000000000002
     7   1      1.9450000000000143      60.295000000000016      66.129999999999995
     8   1  1.4210854715202004e-14      64.185000000000002      60.295000000000016
     9   1      1.9450000000000143      62.240000000000002      60.295000000000016
    10   1      1.9450000000000143      64.185000000000002      58.350000000000016
    11   1  1.4210854715202004e-14      62.240000000000002      62.240000000000002
    12   1  1.4210854715202004e-14      64.185000000000002      64.185000000000002
    13   1      1.9450000000000143      62.240000000000002      64.185000000000002
    14   1      1.9450000000000143      64.185000000000002      62.240000000000002
    15   1      1.9450000000000143      64.185000000000002      66.129999999999995
    16   1      1.9450000000000143      66.129999999999995      60.295000000000016
    17   1      1.9450000000000143      66.129999999999995      64.185000000000002
    18   1      3.8900000000000148      56.405000000000015      60.295000000000016
    19   1      5.8350000000000151      54.460000000000015      60.295000000000016
    20   1      5.8350000000000151      56.405000000000015      58.350000000000016
    21   1      3.8900000000000148      56.405000000000015      64.185000000000002
    22   1      5.8350000000000151      54.460000000000015      64.185000000000002
    23   1      5.8350000000000151      56.405000000000015      62.240000000000002
    24   1      5.8350000000000151      56.405000000000015      66.129999999999995
    25   1      3.8900000000000148      60.295000000000016      56.405000000000015
    26   1      5.8350000000000151      58.350000000000016      56.405000000000015
    27   1      5.8350000000000151      60.295000000000016      54.460000000000015
    28   1      3.8900000000000148      58.350000000000016      58.350000000000016
    29   1      3.8900000000000148      60.295000000000016      60.295000000000016
    30   1      5.8350000000000151      58.350000000000016      60.295000000000016
    31   1      5.8350000000000151      60.295000000000016      58.350000000000016
    32   1      3.8900000000000148      58.350000000000016      62.240000000000002
    33   1      3.8900000000000148      60.295000000000016      64.185000000000002
    34   1      5.8350000000000151      58.350000000000016      64.185000000000002
    35   1      5.8350000000000151      60.295000000000016      62.240000000000002
    36   1      3.8900000000000148      58.350000000000016      66.129999999999995
    37   1      3.8900000000000148      60.295000000000016      68.074999999999989
    38   1      5.8350000000000151      58.350000000000016      68.074999999999989
    39   1      5.8350000000000151      60.295000000000016      66.129999999999995
    40   1      5.8350000000000151      60.295000000000016      70.019999999999996
    41   1      3.8900000000000148      64.185000000000002      56.405000000000015
    42   1      5.8350000000000151      62.240000000000002      56.405000000000015
    43   1      5.8350000000000151      64.185000000000002      54.460000000000015
    44   1      3.8900000000000148      62.240000000000002      58.350000000000016
    45   1      3.8900000000000148      64.185000000000002      60.295000000000016
    46   1      5.8350000000000151      62.240000000000002      60.295000000000016
    47   1      5.8350000000000151      64.185000000000002      58.350000000000016
    48   1      3.8900000000000148      62.240000000000002      62.240000000000002
    49   1      3.8900000000000148      64.185000000000002      64.185000000000002
    50   1      5.8350000000000151      62.240000000000002      64.185000000000002
    51   1      5.8350000000000151      64.185000000000002      62.240000000000002
    52   1      3.8900000000000148      62.240000000000002      66.129999999999995
    53   1      3.8900000000000148      64.185000000000002      68.074999999999989
    54   1      5.8350000000000151      62.240000000000002      68.074999999999989
    55   1      5.8350000000000151      64.185000000000002      66.129999999999995
    56   1      5.8350000000000151      64.185000000000002      70.019999999999996
    57   1      5.8350000000000151      66.129999999999995      56.405000000000015
    58   1      3.8900000000000148      66.129999999999995      58.350000000000016
    59   1      3.8900000000000148      68.074999999999989      60.295000000000016
    60   1      5.8350000000000151      66.129999999999995      60.295000000000016
    61   1      5.8350000000000151      68.074999999999989      58.350000000000016
    62   1      3.8900000000000148      66.129999999999995      62.240000000000002
    63   1      3.8900000000000148      68.074999999999989      64.185000000000002
    64   1      5.8350000000000151      66.129999999999995      64.185000000000002
    65   1      5.8350000000000151      68.074999999999989      62.240000000000002
    66   1      3.8900000000000148      66.129999999999995      66.129999999999995
    67   1      5.8350000000000151      66.129999999999995      68.074999999999989
    68   1      5.8350000000000151      68.074999999999989      66.129999999999995
    69   1      5.8350000000000151      70.019999999999996      60.295000000000016
    70   1      5.8350000000000151      70.019999999999996      64.185000000000002
    71   1      7.7800000000000153      52.515000000000015      60.295000000000016
    72   1      9.7250000000000156      50.570000000000014      60.295000000000016
    73   1      9.7250000000000156      52.515000000000015      58.350000000000016
    74   1      7.7800000000000153      52.515000000000015      64.185000000000002
    75   1      9.7250000000000156      50.570000000000014      64.185000000000002
    76   1      9.7250000000000156      52.515000000000015      62.240000000000002
    77   1      9.7250000000000156      52.515000000000015      66.129999999999995
    78   1      7.7800000000000153      56.405000000000015      56.405000000000015
    79   1      9.7250000000000156      54.460000000000015      56.405000000000015
    80   1      9.7250000000000156      56.405000000000015      54.460000000000015
    81   1      7.7800000000000153      54.460000000000015      58.350000000000016
    82   1      7.7800000000000153      56.405000000000015      60.295000000000016
    83   1      9.7250000000000156      54.460000000000015      60.295000000000016
    84   1      9.7250000000000156      56.405000000000015      58.350000000000016
    85   1      7.7800000000000153      54.460000000000015      62.240000000000002
    86   1      7.7800000000000153      56.405000000000015      64.185000000000002
    87   1      9.7250000000000156      54.460000000000015      64.185000000000002
    88   1      9.7250000000000156      56.405000000000015      62.240000000000002
    89   1      7.7800000000000153      54.460000000000015      66.129999999999995
    90   1      7.7800000000000153      56.405000000000015      68.074999999999989
    91   1      9.7250000000000156      54.460000000000015      68.074999999999989
    92   1      9.7250000000000156      56.405000000000015      66.129999999999995
    93   1      9.7250000000000156      56.405000000000015      70.019999999999996
    94   1      7.7800000000000153      60.295000000000016      52.515000000000015
    95   1      9.7250000000000156      58.350000000000016      52.515000000000015
    96   1      9.7250000000000156      60.295000000000016      50.570000000000014
    97   1      7.7800000000000153      58.350000000000016      54.460000000000015
    98   1      7.7800000000000153      60.295000000000016      56.405000000000015
    99   1      9.7250000000000156      58.350000000000016      56.405000000000015
   100   1      9.7250000000000156      60.295000000000016      54.460000000000015
   101   1      7.7800000000000153      58.350000000000016      58.350000000000016
   102   1      7.7800000000000153      60.295000000000016      60.295000000000016
   103   1      9.7250000000000156      58.350000000000016      60.295000000000016
   104   1      9.7250000000000156      60.295000000000016      58.350000000000016
   105   1      7.7800000000000153      58.350000000000016      62.240000000000002
   106   1      7.7800000000000153      60.295000000000016      64.185000000000002
   107   1      9.7250000000000156      58.350000000000016      64.185000000000002
   108   1      9.7250000000000156      60.295000000000016      62.240000000000002
   109   1      7.7800000000000153      58.350000000000016      66.129999999999995
   110   1      7.7800000000000153      60.295000000000016      68.074999999999989
   111   1      9.7250000000000156      58.350000000000016      68.074999999999989
   112   1      9.7250000000000156      60.295000000000016      66.129999999999995
   113   1      7.7800000000000153      58.350000000000016      70.019999999999996
   114   1      7.7800000000000153      60.295000000000016      71.964999999999989
   115   1      9.7250000000000156      58.350000000000016      71.964999999999989
   116   1      9.7250000000000156      60.295000000000016      70.019999999999996
   117   1      9.7250000000000156      60.295000000000016      73.909999999999997
   118   1      7.7800000000000153      64.185000000000002      52.515000000000015
   119   1      9.7250000000000156      62.240000000000002      52.515000000000015
   120   1      9.7250000000000156      64.185000000000002      50.570000000000014
   121   1      7.7800000000000153      62.240000000000002      54.460000000000015
   122   1      7.7800000000000153      64.185000000000002      56.405000000000015
   123   1      9.7250000000000156      62.240000000000002      56.405000000000015
   124   1      9.7250000000000156      64.185000000000002      54.460000000000015
   125   1      7.7800000000000153      62.240000000000002      58.350000000000016
   126   1      7.7800000000000153      64.185000000000002      60.295000000000016
   127   1      9.7250000000000156      62.240000000000002      60.295000000000016
   128   1      9.7250000000000156      64.185000000000002      58.350000000000016
   129   1      7.7800000000000153      62.240000000000002      62.240000000000002
   130   1      7.7800000000000153      64.185000000000002      64.185000000000002
   131   1      9.7250000000000156      62.240000000000002      64.185000000000002
   132   1      9.7250000000000156      64.185000000000002      62.240000000000002
   133   1      7.7800000000000153      62.240000000000002      66.129999999999995
   134   1      7.7800000000000153      64.185000000000002      68.074999999999989
   135   1      9.7250000000000156      62.240000000000002      68.074999999999989
   136   1      9.7250000000000156      64.185000000000002      66.129999999999995
   137   1      7.7800000000000153      62.240000000000002      70.019999999999996
   138   1      7.7800000000000153      64.185000000000002      71.964999999999989
   139   1      9.7250000000000156      62.240000000000002      71.964999999999989
   140   1      9.7250000000000156      64.185000000000002      70.019999999999996
   141   1      9.7250000000000156      64.185000000000002      73.909999999999997
   142   1      9.7250000000000156      66.129999999999995      52.515000000000015
   143   1      7.7800000000000153      66.129999999999995      54.460000000000015
   144   1      7.7800000000000153      68.074999999999989      56.405000000000015
   145   1      9.7250000000000156      66.129999999999995      56.405000000000015
   146   1      9.7250000000000156      68.074999999999989      54.460000000000015
   147   1      7.7800000000000153      66.129999999999995      58.350000000000016
   148   1      7.7800000000000153      68.074999999999989      60.295000000000016
   149   1      9.7250000000000156      66.129999999999995      60.295000000000016
   150   1      9.7250000000000156      68.074999999999989      58.350000000000016
   151   1      7.7800000000000153      66.129999999999995      62.240000000000002
   152   1      7.7800000000000153      68.074999999999989      64.185000000000002
   153   1      9.7250000000000156      66.129999999999995      64.185000000000002
   154   1      9.7250000000000156      68.074999999999989      62.240000000000002
   155   1      7.7800000000000153      66.129999999999995      66.129999999999995
   156   1      7.7800000000000153      68.074999999999989      68.074999999999989
   157   1      9.7250000000000156      66.129999999999995      68.074999999999989
   158   1      9.7250000000000156      68.074999999999989      66.129999999999995
   159   1      7.7800000000000153      66.129999999999995      70.019999999999996
   160   1      9.7250000000000156      66.129999999999995      71.964999999999989
   161   1      9.7250000000000156      68.074999999999989      70.019999999999996
   162   1      9.7250000000000156      70.019999999999996      56.405000000000015
   163   1      7.7800000000000153      70.019999999999996      58.350000000000016
   164   1      7.7800000000000153      71.964999999999989      60.295000000000016
   165   1      9.7250000000000156      70.019999999999996      60.295000000000016
   166   1      9.7250000000000156      71.964999999999989      58.350000000000016
   167   1      7.7800000000000153      70.019999999999996      62.240000000000002
   168   1      7.7800000000000153      71.964999999999989      64.185000000000002
   169   1      9.7250000000000156      70.019999999999996      64.185000000000002
   170   1      9.7250000000000156      71.964999999999989      62.240000000000002
   171   1      7.7800000000000153      70.019999999999996      66.129999999999995
   172   1      9.7250000000000156      70.019999999999996      68.074999999999989
   173   1      9.7250000000000156      71.964999999999989      66.129999999999995
   174   1      9.7250000000000156      73.909999999999997      60.295000000000016
   175   1      9.7250000000000156      73.909999999999997      64.185000000000002
   176   1      11.670000000000016      48.625000000000014      60.295000000000016
   177   1      13.615000000000009      46.680000000000014      60.295000000000016
   178   1      13.615000000000009      48.625000000000014      58.350000000000016
   179   1      11.670000000000016      48.625000000000014      64.185000000000002
   180   1      13.615000000000009      46.680000000000014      64.185000000000002
   181   1      13.615000000000009      48.625000000000014      62.240000000000002
   182   1      13.615000000000009      48.625000000000014      66.129999999999995
   183   1      11.670000000000016      52.515000000000015      56.405000000000015
   184   1      13.615000000000009      50.570000000000014      56.405000000000015
   185   1      13.615000000000009      52.515000000000015      54.460000000000015
   186   1      11.670000000000016      50.570000000000014      58.350000000000016
   187   1      11.670000000000016      52.515000000000015      60.295000000000016
   188   1      13.615000000000009      50.570000000000014      60.295000000000016
   189   1      13.615000000000009      52.515000000000015      58.350000000000016
   190   1      11.670000000000016      50.570000000000014      62.240000000000002
   191   1      11.670000000000016      52.515000000000015      64.185000000000002
   192   1      13.615000000000009      50.570000000000014      64.185000000000002
   193   1      13.615000000000009      52.515000000000015      62.240000000000002
   194   1      11.670000000000016      50.570000000000014      66.129999999999995
   195   1      11.670000000000016      52.515000000000015      68.074999999999989
   196   1      13.615000000000009      50.570000000000014      68.074999999999989
   197   1      13.615000000000009      52.515000000000015      66.129999999999995
   198   1      13.615000000000009      52.515000000000015      70.019999999999996
   199   1      11.670000000000016      56.405000000000015      52.515000000000015
   200   1      13.615000000000009      54.460000000000015      52.515000000000015
   201   1      13.615000000000009      56.405000000000015      50.570000000000014
   202   1      11.670000000000016      54.460000000000015      54.460000000000015
   203   1      11.670000000000016      56.405000000000015      56.405000000000015
   204   1      13.615000000000009      54.460000000000015      56.405000000000015
   205   1      13.615000000000009      56.405000000000015      54.460000000000015
   206   1      11.670000000000016      54.460000000000015      58.350000000000016
   207   1      11.670000000000016      56.405000000000015      60.295000000000016
   208   1      13.615000000000009      54.460000000000015      60.295000000000016
   209   1      13.615000000000009      56.405000000000015      58.350000000000016
   210   1      11.670000000000016      54.460000000000015      62.240000000000002
   211   1      11.670000000000016      56.405000000000015      64.185000000000002
   212   1      13.615000000000009      54.460000000000015      64.185000000000002
   213   1      13.615000000000009      56.405000000000015      62.240000000000002
   214   1      11.670000000000016      54.460000000000015      66.129999999999995
   215   1      11.670000000000016      56.405000000000015      68.074999999999989
   216   1      13.615000000000009      54.460000000000015      68.074999999999989
   217   1      13.615000000000009      56.405000000000015      66.129999999999995
   218   1      11.670000000000016      54.460000000000015      70.019999999999996
   219   1      11.670000000000016      56.405000000000015      71.964999999999989
   220   1      13.615000000000009      54.460000000000015      71.964999999999989
   221   1      13.615000000000009      56.405000000000015      70.019999999999996
   222   1      13.615000000000009      56.405000000000015      73.909999999999997
   223   1      11.670000000000016      60.295000000000016      48.625000000000014
   224   1      13.615000000000009      58.350000000000016      48.625000000000014
   225   1      13.615000000000009      60.295000000000016      46.680000000000014
   226   1      11.670000000000016      58.350000000000016      50.570000000000014
   227   1      11.670000000000016      60.295000000000016      52.515000000000015
   228   1      13.615000000000009      58.350000000000016      52.515000000000015
   229   1      13.615000000000009      60.295000000000016      50.570000000000014
   230   1      11.670000000000016      58.350000000000016      54.460000000000015
   231   1      11.670000000000016      60.295000000000016      56.405000000000015
   232   1      13.615000000000009      58.350000000000016      56.405000000000015
   233   1      13.615000000000009      60.295000000000016      54.460000000000015
   234   1      11.670000000000016      58.350000000000016      58.350000000000016
   235   1      11.670000000000016      60.295000000000016      60.295000000000016
   236   1      13.615000000000009      58.350000000000016      60.295000000000016
   237   1      13.615000000000009      60.295000000000016      58.350000000000016
   238   1      11.670000000000016      58.350000000000016      62.240000000000002
   239   1      11.670000000000016      60.295000000000016      64.185000000000002
   240   1      13.615000000000009      58.350000000000016      64.185000000000002
   241   1      13.615000000000009      60.295000000000016      62.240000000000002
   242   1      11.670000000000016      58.350000000000016      66.129999999999995
   243   1      11.670000000000016      60.295000000000016      68.074999999999989
   244   1      13.615000000000009      58.350000000000016      68.074999999999989
   245   1      13.615000000000009      60.295000000000016      66.129999999999995
   246   1      11.670000000000016      58.350000000000016      70.019999999999996
   247   1      11.670000000000016      60.295000000000016      71.964999999999989
   248   1      13.615000000000009      58.350000000000016      71.964999999999989
   249   1      13.615000000000009      60.295000000000016      70.019999999999996
   250   1      11.670000000000016      58.350000000000016      73.909999999999997
   251   1      11.670000000000016      60.295000000000016       75.85499999999999
   252   1      13.615000000000009      58.350000000000016       75.85499999999999
   253   1      13.615000000000009      60.295000000000016      73.909999999999997
   254   1      13.615000000000009      60.295000000000016      77.799999999999997
   255   1      11.670000000000016      64.185000000000002      48.625000000000014
   256   1      13.615000000000009      62.240000000000002      48.625000000000014
   257   1      13.615000000000009      64.185000000000002      46.680000000000014
   258   1      11.670000000000016      62.240000000000002      50.570000000000014
   259   1      11.670000000000016      64.185000000000002      52.515000000000015
   260   1      13.615000000000009      62.240000000000002      52.515000000000015
   261   1      13.615000000000009      64.185000000000002      50.570000000000014
   262   1      11.670000000000016      62.240000000000002      54.460000000000015
   263   1      11.670000000000016      64.185000000000002      56.405000000000015
   264   1      13.615000000000009      62.240000000000002      56.405000000000015
   265   1      13.615000000000009      64.185000000000002      54.460000000000015
   266   1      11.670000000000016      62.240000000000002      58.350000000000016
   267   1      11.670000000000016      64.185000000000002      60.295000000000016
   268   1      13.615000000000009      62.240000000000002      60.295000000000016
   269   1      13.615000000000009      64.185000000000002      58.350000000000016
   270   1      11.670000000000016      62.240000000000002      62.240000000000002
   271   1      11.670000000000016      64.185000000000002      64.185000000000002
   272   1      13.615000000000009      62.240000000000002      64.185000000000002
   273   1      13.615000000000009      64.185000000000002      62.240000000000002
   274   1      11.670000000000016      62.240000000000002      66.129999999999995
   275   1      11.670000000000016      64.185000000000002      68.074999999999989
   276   1      13.615000000000009      62.240000000000002      68.074999999999989
   277   1      13.615000000000009      64.185000000000002      66.129999999999995
   278   1      11.670000000000016      62.240000000000002      70.019999999999996
   279   1      11.670000000000016      64.185000000000002      71.964999999999989
   280   1      13.615000000000009      62.240000000000002      71.964999999999989
   281   1      13.615000000000009      64.185000000000002      70.019999999999996
   282   1      11.670000000000016      62.240000000000002      73.909999999999997
   283   1      11.670000000000016      64.185000000000002       75.85499999999999
   284   1      13.615000000000009      62.240000000000002       75.85499999999999
   285   1      13.615000000000009      64.185000000000002      73.909999999999997
   286   1      13.615000000000009      64.185000000000002      77.799999999999997
   287   1      13.615000000000009      66.129999999999995      48.625000000000014
   288   1      11.670000000000016      66.129999999999995      50.570000000000014
   289   1      11.670000000000016      68.074999999999989      52.515000000000015
   290   1      13.615000000000009      66.129999999999995      52.515000000000015
   291   1      13.615000000000009      68.074999999999989      50.570000000000014
   292   1      11.670000000000016      66.129999999999995      54.460000000000015
   293   1      11.670000000000016      68.074999999999989      56.405000000000015
   294   1      13.615000000000009      66.129999999999995      56.405000000000015
   295   1      13.615000000000009      68.074999999999989      54.460000000000015
   296   1      11.670000000000016      66.129999999999995      58.350000000000016
   297   1      11.670000000000016      68.074999999999989      60.295000000000016
   298   1      13.615000000000009      66.129999999999995      60.295000000000016
   299   1      13.615000000000009      68.074999999999989      58.350000000000016
   300   1      11.670000000000016      66.129999999999995      62.240000000000002
   301   1      11.670000000000016      68.074999999999989      64.185000000000002
   302   1      13.615000000000009      66.129999999999995      64.185000000000002
   303   1      13.615000000000009      68.074999999999989      62.240000000000002
   304   1      11.670000000000016      66.129999999999995      66.129999999999995
   305   1      11.670000000000016      68.074999999999989      68.074999999999989
   306   1      13.615000000000009      66.129999999999995      68.074999999999989
   307   1      13.615000000000009      68.074999999999989      66.129999999999995
   308   1      11.670000000000016      66.129999999999995      70.019999999999996
   309   1      11.670000000000016      68.074999999999989      71.964999999999989
   310   1      13.615000000000009      66.129999999999995      71.964999999999989
   311   1      13.615000000000009      68.074999999999989      70.019999999999996
   312   1      11.670000000000016      66.129999999999995      73.909999999999997
   313   1      13.615000000000009      66.129999999999995       75.85499999999999
   314   1      13.615000000000009      68.074999999999989      73.909999999999997
   315   1      13.615000000000009      70.019999999999996      52.515000000000015
   316   1      11.670000000000016      70.019999999999996      54.460000000000015
   317   1      11.670000000000016      71.964999999999989      56.405000000000015
   318   1      13.615000000000009      70.019999999999996      56.405000000000015
   319   1      13.615000000000009      71.964999999999989      54.460000000000015
   320   1      11.670000000000016      70.019999999999996      58.350000000000016
   321   1      11.670000000000016      71.964999999999989      60.295000000000016
   322   1      13.615000000000009      70.019999999999996      60.295000000000016
   323   1      13.615000000000009      71.964999999999989      58.350000000000016
   324   1      11.670000000000016      70.019999999999996      62.240000000000002
   325   1      11.670000000000016      71.964999999999989      64.185000000000002
   326   1      13.615000000000009      70.019999999999996      64.185000000000002
   327   1      13.615000000000009      71.964999999999989      62.240000000000002
   328   1      11.670000000000016      70.019999999999996      66.129999999999995
   329   1      11.670000000000016      71.964999999999989      68.074999999999989
   330   1      13.615000000000009      70.019999999999996      68.074999999999989
   331   1      13.615000000000009      71.964999999999989      66.129999999999995
   332   1      11.670000000000016      70.019999999999996      70.019999999999996
   333   1      13.615000000000009      70.019999999999996      71.964999999999989
   334   1      13.615000000000009      71.964999999999989      70.019999999999996
   335   1      13.615000000000009      73.909999999999997      56.405000000000015
   336   1      11.670000000000016      73.909999999999997      58.350000000000016
   337   1      11.670000000000016       75.85499999999999      60.295000000000016
   338   1      13.615000000000009      73.909999999999997      60.295000000000016
   339   1      13.615000000000009       75.85499999999999      58.350000000000016
   340   1      11.670000000000016      73.909999999999997      62.240000000000002
   341   1      11.670000000000016       75.85499999999999      64.185000000000002
   342   1      13.615000000000009      73.909999999999997      64.185000000000002
   343   1      13.615000000000009       75.85499999999999      62.240000000000002
   344   1      11.670000000000016      73.909999999999997      66.129999999999995
   345   1      13.615000000000009      73.909999999999997      68.074999999999989
   346   1      13.615000000000009       75.85499999999999      66.129999999999995
   347   1      13.615000000000009      77.799999999999997      60.295000000000016
   348   1      13.615000000000009      77.799999999999997      64.185000000000002
   349   1      15.560000000000018      44.735000000000014      60.295000000000016
   350   1       17.50500000000001      42.790000000000013      60.295000000000016
   351   1       17.50500000000001      44.735000000000014      58.350000000000016
   352   1      15.560000000000018      44.735000000000014      64.185000000000002
   353   1       17.50500000000001      42.790000000000013      64.185000000000002
   354   1       17.50500000000001      44.735000000000014      62.240000000000002
   355   1       17.50500000000001      44.735000000000014      66.129999999999995
   356   1       17.50500000000001      48.625000000000014      50.570000000000014
   357   1      15.560000000000018      48.625000000000014      56.405000000000015
   358   1       17.50500000000001      46.680000000000014      56.405000000000015