model_files/CuAu/CuAu_30000/CuAu_320/CuAu_320_fcc_29879_temp.data (written by ASE) 

29879 	 atoms 
2  atom types
0.0                      99  xlo xhi
0.0                      99  ylo yhi
0.0                      99  zlo zhi


Atoms 

     1   1      1.8700000000000048      43.010000000000005      44.880000000000017
     2   1      1.8700000000000048      43.010000000000005      48.620000000000012
     3   1      1.8700000000000048      43.010000000000005      52.360000000000007
     4   1      1.8700000000000048      44.880000000000017      43.010000000000005
     5   1  7.1054273576010019e-15      44.880000000000017      44.880000000000017
     6   1  7.1054273576010019e-15      46.750000000000007      46.750000000000007
     7   1      1.8700000000000048      44.880000000000017      46.750000000000007
     8   1      1.8700000000000048      46.750000000000007      44.880000000000017
     9   1  7.1054273576010019e-15      44.880000000000017      48.620000000000012
    10   1  7.1054273576010019e-15      46.750000000000007      50.490000000000002
    11   1      1.8700000000000048      44.880000000000017      50.490000000000002
    12   1      1.8700000000000048      46.750000000000007      48.620000000000012
    13   1  7.1054273576010019e-15      44.880000000000017      52.360000000000007
    14   1      1.8700000000000048      44.880000000000017      54.230000000000011
    15   1      1.8700000000000048      46.750000000000007      52.360000000000007
    16   1      1.8700000000000048      48.620000000000012      43.010000000000005
    17   1  7.1054273576010019e-15      48.620000000000012      44.880000000000017
    18   1  7.1054273576010019e-15      50.490000000000002      46.750000000000007
    19   1      1.8700000000000048      48.620000000000012      46.750000000000007
    20   1      1.8700000000000048      50.490000000000002      44.880000000000017
    21   1  7.1054273576010019e-15      48.620000000000012      48.620000000000012
    22   1  7.1054273576010019e-15      50.490000000000002      50.490000000000002
    23   1      1.8700000000000048      48.620000000000012      50.490000000000002
    24   1      1.8700000000000048      50.490000000000002      48.620000000000012
    25   1  7.1054273576010019e-15      48.620000000000012      52.360000000000007
    26   1      1.8700000000000048      48.620000000000012      54.230000000000011
    27   1      1.8700000000000048      50.490000000000002      52.360000000000007
    28   1      1.8700000000000048      52.360000000000007      43.010000000000005
    29   1  7.1054273576010019e-15      52.360000000000007      44.880000000000017
    30   1      1.8700000000000048      52.360000000000007      46.750000000000007
    31   1      1.8700000000000048      54.230000000000011      44.880000000000017
    32   1  7.1054273576010019e-15      52.360000000000007      48.620000000000012
    33   1      1.8700000000000048      52.360000000000007      50.490000000000002
    34   1      1.8700000000000048      54.230000000000011      48.620000000000012
    35   1  7.1054273576010019e-15      52.360000000000007      52.360000000000007
    36   1      1.8700000000000048      52.360000000000007      54.230000000000011
    37   1      1.8700000000000048      54.230000000000011      52.360000000000007
    38   1      3.7400000000000095      39.270000000000003      39.270000000000003
    39   1      5.6100000000000074      37.400000000000013      39.270000000000003
    40   1      5.6100000000000074      39.270000000000003      37.400000000000013
    41   1      3.7400000000000095      39.270000000000003      43.010000000000005
    42   1      5.6100000000000074      37.400000000000013      43.010000000000005
    43   1      5.6100000000000074      39.270000000000003      41.140000000000015
    44   1      3.7400000000000095      39.270000000000003      46.750000000000007
    45   1      5.6100000000000074      37.400000000000013      46.750000000000007
    46   1      5.6100000000000074      39.270000000000003      44.880000000000017
    47   1      3.7400000000000095      39.270000000000003      50.490000000000002
    48   1      5.6100000000000074      37.400000000000013      50.490000000000002
    49   1      5.6100000000000074      39.270000000000003      48.620000000000012
    50   1      3.7400000000000095      39.270000000000003      54.230000000000011
    51   1      5.6100000000000074      37.400000000000013      54.230000000000011
    52   1      5.6100000000000074      39.270000000000003      52.360000000000007
    53   1      3.7400000000000095      39.270000000000003      57.970000000000013
    54   1      5.6100000000000074      37.400000000000013      57.970000000000013
    55   1      5.6100000000000074      39.270000000000003      56.100000000000009
    56   1      5.6100000000000074      39.270000000000003      59.840000000000011
    57   1      3.7400000000000095      43.010000000000005      39.270000000000003
    58   1      5.6100000000000074      41.140000000000015      39.270000000000003
    59   1      5.6100000000000074      43.010000000000005      37.400000000000013
    60   1      3.7400000000000095      41.140000000000015      41.140000000000015
    61   1      3.7400000000000095      43.010000000000005      43.010000000000005
    62   1      5.6100000000000074      41.140000000000015      43.010000000000005
    63   1      5.6100000000000074      43.010000000000005      41.140000000000015
    64   1      3.7400000000000095      41.140000000000015      44.880000000000017
    65   1      3.7400000000000095      43.010000000000005      46.750000000000007
    66   1      5.6100000000000074      41.140000000000015      46.750000000000007
    67   1      5.6100000000000074      43.010000000000005      44.880000000000017
    68   1      3.7400000000000095      41.140000000000015      48.620000000000012
    69   1      3.7400000000000095      43.010000000000005      50.490000000000002
    70   1      5.6100000000000074      41.140000000000015      50.490000000000002
    71   1      5.6100000000000074      43.010000000000005      48.620000000000012
    72   1      3.7400000000000095      41.140000000000015      52.360000000000007
    73   1      3.7400000000000095      43.010000000000005      54.230000000000011
    74   1      5.6100000000000074      41.140000000000015      54.230000000000011
    75   1      5.6100000000000074      43.010000000000005      52.360000000000007
    76   1      3.7400000000000095      41.140000000000015      56.100000000000009
    77   1      3.7400000000000095      43.010000000000005      57.970000000000013
    78   1      5.6100000000000074      41.140000000000015      57.970000000000013
    79   1      5.6100000000000074      43.010000000000005      56.100000000000009
    80   1      5.6100000000000074      43.010000000000005      59.840000000000011
    81   1      3.7400000000000095      46.750000000000007      39.270000000000003
    82   1      5.6100000000000074      44.880000000000017      39.270000000000003
    83   1      5.6100000000000074      46.750000000000007      37.400000000000013
    84   1      3.7400000000000095      44.880000000000017      41.140000000000015
    85   1      3.7400000000000095      46.750000000000007      43.010000000000005
    86   1      5.6100000000000074      44.880000000000017      43.010000000000005
    87   1      5.6100000000000074      46.750000000000007      41.140000000000015
    88   1      3.7400000000000095      44.880000000000017      44.880000000000017
    89   1      3.7400000000000095      46.750000000000007      46.750000000000007
    90   1      5.6100000000000074      44.880000000000017      46.750000000000007
    91   1      5.6100000000000074      46.750000000000007      44.880000000000017
    92   1      3.7400000000000095      44.880000000000017      48.620000000000012
    93   1      3.7400000000000095      46.750000000000007      50.490000000000002
    94   1      5.6100000000000074      44.880000000000017      50.490000000000002
    95   1      5.6100000000000074      46.750000000000007      48.620000000000012
    96   1      3.7400000000000095      44.880000000000017      52.360000000000007
    97   1      3.7400000000000095      46.750000000000007      54.230000000000011
    98   1      5.6100000000000074      44.880000000000017      54.230000000000011
    99   1      5.6100000000000074      46.750000000000007      52.360000000000007
   100   1      3.7400000000000095      44.880000000000017      56.100000000000009
   101   1      3.7400000000000095      46.750000000000007      57.970000000000013
   102   1      5.6100000000000074      44.880000000000017      57.970000000000013
   103   1      5.6100000000000074      46.750000000000007      56.100000000000009
   104   1      5.6100000000000074      46.750000000000007      59.840000000000011
   105   1      3.7400000000000095      50.490000000000002      39.270000000000003
   106   1      5.6100000000000074      48.620000000000012      39.270000000000003
   107   1      5.6100000000000074      50.490000000000002      37.400000000000013
   108   1      3.7400000000000095      48.620000000000012      41.140000000000015
   109   1      3.7400000000000095      50.490000000000002      43.010000000000005
   110   1      5.6100000000000074      48.620000000000012      43.010000000000005
   111   1      5.6100000000000074      50.490000000000002      41.140000000000015
   112   1      3.7400000000000095      48.620000000000012      44.880000000000017
   113   1      3.7400000000000095      50.490000000000002      46.750000000000007
   114   1      5.6100000000000074      48.620000000000012      46.750000000000007
   115   1      5.6100000000000074      50.490000000000002      44.880000000000017
   116   1      3.7400000000000095      48.620000000000012      48.620000000000012
   117   1      3.7400000000000095      50.490000000000002      50.490000000000002
   118   1      5.6100000000000074      48.620000000000012      50.490000000000002
   119   1      5.6100000000000074      50.490000000000002      48.620000000000012
   120   1      3.7400000000000095      48.620000000000012      52.360000000000007
   121   1      3.7400000000000095      50.490000000000002      54.230000000000011
   122   1      5.6100000000000074      48.620000000000012      54.230000000000011
   123   1      5.6100000000000074      50.490000000000002      52.360000000000007
   124   1      3.7400000000000095      48.620000000000012      56.100000000000009
   125   1      3.7400000000000095      50.490000000000002      57.970000000000013
   126   1      5.6100000000000074      48.620000000000012      57.970000000000013
   127   1      5.6100000000000074      50.490000000000002      56.100000000000009
   128   1      5.6100000000000074      50.490000000000002      59.840000000000011
   129   1      3.7400000000000095      54.230000000000011      39.270000000000003
   130   1      5.6100000000000074      52.360000000000007      39.270000000000003
   131   1      5.6100000000000074      54.230000000000011      37.400000000000013
   132   1      3.7400000000000095      52.360000000000007      41.140000000000015
   133   1      3.7400000000000095      54.230000000000011      43.010000000000005
   134   1      5.6100000000000074      52.360000000000007      43.010000000000005
   135   1      5.6100000000000074      54.230000000000011      41.140000000000015
   136   1      3.7400000000000095      52.360000000000007      44.880000000000017
   137   1      3.7400000000000095      54.230000000000011      46.750000000000007
   138   1      5.6100000000000074      52.360000000000007      46.750000000000007
   139   1      5.6100000000000074      54.230000000000011      44.880000000000017
   140   1      3.7400000000000095      52.360000000000007      48.620000000000012
   141   1      3.7400000000000095      54.230000000000011      50.490000000000002
   142   1      5.6100000000000074      52.360000000000007      50.490000000000002
   143   1      5.6100000000000074      54.230000000000011      48.620000000000012
   144   1      3.7400000000000095      52.360000000000007      52.360000000000007
   145   1      3.7400000000000095      54.230000000000011      54.230000000000011
   146   1      5.6100000000000074      52.360000000000007      54.230000000000011
   147   1      5.6100000000000074      54.230000000000011      52.360000000000007
   148   1      3.7400000000000095      52.360000000000007      56.100000000000009
   149   1      3.7400000000000095      54.230000000000011      57.970000000000013
   150   1      5.6100000000000074      52.360000000000007      57.970000000000013
   151   1      5.6100000000000074      54.230000000000011      56.100000000000009
   152   1      5.6100000000000074      54.230000000000011      59.840000000000011
   153   1      3.7400000000000095      57.970000000000013      39.270000000000003
   154   1      5.6100000000000074      56.100000000000009      39.270000000000003
   155   1      5.6100000000000074      57.970000000000013      37.400000000000013
   156   1      3.7400000000000095      56.100000000000009      41.140000000000015
   157   1      3.7400000000000095      57.970000000000013      43.010000000000005
   158   1      5.6100000000000074      56.100000000000009      43.010000000000005
   159   1      5.6100000000000074      57.970000000000013      41.140000000000015
   160   1      3.7400000000000095      56.100000000000009      44.880000000000017
   161   1      3.7400000000000095      57.970000000000013      46.750000000000007
   162   1      5.6100000000000074      56.100000000000009      46.750000000000007
   163   1      5.6100000000000074      57.970000000000013      44.880000000000017
   164   1      3.7400000000000095      56.100000000000009      48.620000000000012
   165   1      3.7400000000000095      57.970000000000013      50.490000000000002
   166   1      5.6100000000000074      56.100000000000009      50.490000000000002
   167   1      5.6100000000000074      57.970000000000013      48.620000000000012
   168   1      3.7400000000000095      56.100000000000009      52.360000000000007
   169   1      3.7400000000000095      57.970000000000013      54.230000000000011
   170   1      5.6100000000000074      56.100000000000009      54.230000000000011
   171   1      5.6100000000000074      57.970000000000013      52.360000000000007
   172   1      3.7400000000000095      56.100000000000009      56.100000000000009
   173   1      3.7400000000000095      57.970000000000013      57.970000000000013
   174   1      5.6100000000000074      56.100000000000009      57.970000000000013
   175   1      5.6100000000000074      57.970000000000013      56.100000000000009
   176   1      5.6100000000000074      57.970000000000013      59.840000000000011
   177   1      5.6100000000000074      59.840000000000011      39.270000000000003
   178   1      5.6100000000000074      59.840000000000011      43.010000000000005
   179   1      5.6100000000000074      59.840000000000011      46.750000000000007
   180   1      5.6100000000000074      59.840000000000011      50.490000000000002
   181   1      5.6100000000000074      59.840000000000011      54.230000000000011
   182   1      5.6100000000000074      59.840000000000011      57.970000000000013
   183   1      9.3500000000000085      31.790000000000006      33.660000000000011
   184   1      9.3500000000000085      31.790000000000006      37.400000000000013
   185   1      9.3500000000000085      31.790000000000006      41.140000000000015
   186   1      9.3500000000000085      31.790000000000006      44.880000000000017
   187   1      9.3500000000000085      31.790000000000006      48.620000000000012
   188   1      9.3500000000000085      31.790000000000006      52.360000000000007
   189   1      9.3500000000000085      31.790000000000006      56.100000000000009
   190   1      9.3500000000000085      31.790000000000006      59.840000000000011
   191   1      9.3500000000000085      31.790000000000006      63.580000000000013
   192   1      9.3500000000000085      33.660000000000011      31.790000000000006
   193   1       7.480000000000004      33.660000000000011      33.660000000000011
   194   1       7.480000000000004      35.530000000000008      35.530000000000008
   195   1      9.3500000000000085      33.660000000000011      35.530000000000008
   196   1      9.3500000000000085      35.530000000000008      33.660000000000011
   197   1       7.480000000000004      33.660000000000011      37.400000000000013
   198   1       7.480000000000004      35.530000000000008      39.270000000000003
   199   1      9.3500000000000085      33.660000000000011      39.270000000000003
   200   1      9.3500000000000085      35.530000000000008      37.400000000000013
   201   1       7.480000000000004      33.660000000000011      41.140000000000015
   202   1       7.480000000000004      35.530000000000008      43.010000000000005
   203   1      9.3500000000000085      33.660000000000011      43.010000000000005
   204   1      9.3500000000000085      35.530000000000008      41.140000000000015
   205   1       7.480000000000004      33.660000000000011      44.880000000000017
   206   1       7.480000000000004      35.530000000000008      46.750000000000007
   207   1      9.3500000000000085      33.660000000000011      46.750000000000007
   208   1      9.3500000000000085      35.530000000000008      44.880000000000017
   209   1       7.480000000000004      33.660000000000011      48.620000000000012
   210   1       7.480000000000004      35.530000000000008      50.490000000000002
   211   1      9.3500000000000085      33.660000000000011      50.490000000000002
   212   1      9.3500000000000085      35.530000000000008      48.620000000000012
   213   1       7.480000000000004      33.660000000000011      52.360000000000007
   214   1       7.480000000000004      35.530000000000008      54.230000000000011
   215   1      9.3500000000000085      33.660000000000011      54.230000000000011
   216   1      9.3500000000000085      35.530000000000008      52.360000000000007
   217   1       7.480000000000004      33.660000000000011      56.100000000000009
   218   1       7.480000000000004      35.530000000000008      57.970000000000013
   219   1      9.3500000000000085      33.660000000000011      57.970000000000013
   220   1      9.3500000000000085      35.530000000000008      56.100000000000009
   221   1       7.480000000000004      33.660000000000011      59.840000000000011
   222   1       7.480000000000004      35.530000000000008      61.710000000000015
   223   1      9.3500000000000085      33.660000000000011      61.710000000000015
   224   1      9.3500000000000085      35.530000000000008      59.840000000000011
   225   1       7.480000000000004      33.660000000000011      63.580000000000013
   226   1      9.3500000000000085      33.660000000000011      65.450000000000017
   227   1      9.3500000000000085      35.530000000000008      63.580000000000013
   228   1      9.3500000000000085      37.400000000000013      31.790000000000006
   229   1       7.480000000000004      37.400000000000013      33.660000000000011
   230   1       7.480000000000004      39.270000000000003      35.530000000000008
   231   1      9.3500000000000085      37.400000000000013      35.530000000000008
   232   1      9.3500000000000085      39.270000000000003      33.660000000000011
   233   1       7.480000000000004      37.400000000000013      37.400000000000013
   234   1       7.480000000000004      39.270000000000003      39.270000000000003
   235   1      9.3500000000000085      37.400000000000013      39.270000000000003
   236   1      9.3500000000000085      39.270000000000003      37.400000000000013
   237   1       7.480000000000004      37.400000000000013      41.140000000000015
   238   1       7.480000000000004      39.270000000000003      43.010000000000005
   239   1      9.3500000000000085      37.400000000000013      43.010000000000005
   240   1      9.3500000000000085      39.270000000000003      41.140000000000015
   241   1       7.480000000000004      37.400000000000013      44.880000000000017
   242   1       7.480000000000004      39.270000000000003      46.750000000000007
   243   1      9.3500000000000085      37.400000000000013      46.750000000000007
   244   1      9.3500000000000085      39.270000000000003      44.880000000000017
   245   1       7.480000000000004      37.400000000000013      48.620000000000012
   246   1       7.480000000000004      39.270000000000003      50.490000000000002
   247   1      9.3500000000000085      37.400000000000013      50.490000000000002
   248   1      9.3500000000000085      39.270000000000003      48.620000000000012
   249   1       7.480000000000004      37.400000000000013      52.360000000000007
   250   1       7.480000000000004      39.270000000000003      54.230000000000011
   251   1      9.3500000000000085      37.400000000000013      54.230000000000011
   252   1      9.3500000000000085      39.270000000000003      52.360000000000007
   253   1       7.480000000000004      37.400000000000013      56.100000000000009
   254   1       7.480000000000004      39.270000000000003      57.970000000000013
   255   1      9.3500000000000085      37.400000000000013      57.970000000000013
   256   1      9.3500000000000085      39.270000000000003      56.100000000000009
   257   1       7.480000000000004      37.400000000000013      59.840000000000011
   258   1       7.480000000000004      39.270000000000003      61.710000000000015
   259   1      9.3500000000000085      37.400000000000013      61.710000000000015
   260   1      9.3500000000000085      39.270000000000003      59.840000000000011
   261   1       7.480000000000004      37.400000000000013      63.580000000000013
   262   1      9.3500000000000085      37.400000000000013      65.450000000000017
   263   1      9.3500000000000085      39.270000000000003      63.580000000000013
   264   1      9.3500000000000085      41.140000000000015      31.790000000000006
   265   1       7.480000000000004      41.140000000000015      33.660000000000011
   266   1       7.480000000000004      43.010000000000005      35.530000000000008
   267   1      9.3500000000000085      41.140000000000015      35.530000000000008
   268   1      9.3500000000000085      43.010000000000005      33.660000000000011
   269   1       7.480000000000004      41.140000000000015      37.400000000000013
   270   1       7.480000000000004      43.010000000000005      39.270000000000003
   271   1      9.3500000000000085      41.140000000000015      39.270000000000003
   272   1      9.3500000000000085      43.010000000000005      37.400000000000013
   273   1       7.480000000000004      41.140000000000015      41.140000000000015
   274   1       7.480000000000004      43.010000000000005      43.010000000000005
   275   1      9.3500000000000085      41.140000000000015      43.010000000000005
   276   1      9.3500000000000085      43.010000000000005      41.140000000000015
   277   1       7.480000000000004      41.140000000000015      44.880000000000017
   278   1       7.480000000000004      43.010000000000005      46.750000000000007
   279   1      9.3500000000000085      41.140000000000015      46.750000000000007
   280   1      9.3500000000000085      43.010000000000005      44.880000000000017
   281   1       7.480000000000004      41.140000000000015      48.620000000000012
   282   1       7.480000000000004      43.010000000000005      50.490000000000002
   283   1      9.3500000000000085      41.140000000000015      50.490000000000002
   284   1      9.3500000000000085      43.010000000000005      48.620000000000012
   285   1       7.480000000000004      41.140000000000015      52.360000000000007
   286   1       7.480000000000004      43.010000000000005      54.230000000000011
   287   1      9.3500000000000085      41.140000000000015      54.230000000000011
   288   1      9.3500000000000085      43.010000000000005      52.360000000000007
   289   1       7.480000000000004      41.140000000000015      56.100000000000009
   290   1       7.480000000000004      43.010000000000005      57.970000000000013
   291   1      9.3500000000000085      41.140000000000015      57.970000000000013
   292   1      9.3500000000000085      43.010000000000005      56.100000000000009
   293   1       7.480000000000004      41.140000000000015      59.840000000000011
   294   1       7.480000000000004      43.010000000000005      61.710000000000015
   295   1      9.3500000000000085      41.140000000000015      61.710000000000015
   296   1      9.3500000000000085      43.010000000000005      59.840000000000011
   297   1       7.480000000000004      41.140000000000015      63.580000000000013
   298   1      9.3500000000000085      41.140000000000015      65.450000000000017
   299   1      9.3500000000000085      43.010000000000005      63.580000000000013
   300   1      9.3500000000000085      44.880000000000017      31.790000000000006
   301   1       7.480000000000004      44.880000000000017      33.660000000000011
   302   1       7.480000000000004      46.750000000000007      35.530000000000008
   303   1      9.3500000000000085      44.880000000000017      35.530000000000008
   304   1      9.3500000000000085      46.750000000000007      33.660000000000011
   305   1       7.480000000000004      44.880000000000017      37.400000000000013
   306   1       7.480000000000004      46.750000000000007      39.270000000000003
   307   1      9.3500000000000085      44.880000000000017      39.270000000000003
   308   1      9.3500000000000085      46.750000000000007      37.400000000000013
   309   1       7.480000000000004      44.880000000000017      41.140000000000015
   310   1       7.480000000000004      46.750000000000007      43.010000000000005
   311   1      9.3500000000000085      44.880000000000017      43.010000000000005
   312   1      9.3500000000000085      46.750000000000007      41.140000000000015
   313   1       7.480000000000004      44.880000000000017      44.880000000000017
   314   1       7.480000000000004      46.750000000000007      46.750000000000007
   315   1      9.3500000000000085      44.880000000000017      46.750000000000007
   316   1      9.3500000000000085      46.750000000000007      44.880000000000017
   317   1       7.480000000000004      44.880000000000017      48.620000000000012
   318   1       7.480000000000004      46.750000000000007      50.490000000000002
   319   1      9.3500000000000085      44.880000000000017      50.490000000000002
   320   1      9.3500000000000085      46.750000000000007      48.620000000000012
   321   1       7.480000000000004      44.880000000000017      52.360000000000007
   322   1       7.480000000000004      46.750000000000007      54.230000000000011
   323   1      9.3500000000000085      44.880000000000017      54.230000000000011
   324   1      9.3500000000000085      46.750000000000007      52.360000000000007
   325   1       7.480000000000004      44.880000000000017      56.100000000000009
   326   1       7.480000000000004      46.750000000000007      57.970000000000013
   327   1      9.3500000000000085      44.880000000000017      57.970000000000013
   328   1      9.3500000000000085      46.750000000000007      56.100000000000009
   329   1       7.480000000000004      44.880000000000017      59.840000000000011
   330   1       7.480000000000004      46.750000000000007      61.710000000000015
   331   1      9.3500000000000085      44.880000000000017      61.710000000000015
   332   1      9.3500000000000085      46.750000000000007      59.840000000000011
   333   1       7.480000000000004      44.880000000000017      63.580000000000013
   334   1      9.3500000000000085      44.880000000000017      65.450000000000017
   335   1      9.3500000000000085      46.750000000000007      63.580000000000013
   336   1      9.3500000000000085      48.620000000000012      31.790000000000006
   337   1       7.480000000000004      48.620000000000012      33.660000000000011
   338   1       7.480000000000004      50.490000000000002      35.530000000000008
   339   1      9.3500000000000085      48.620000000000012      35.530000000000008
   340   1      9.3500000000000085      50.490000000000002      33.660000000000011
   341   1       7.480000000000004      48.620000000000012      37.400000000000013
   342   1       7.480000000000004      50.490000000000002      39.270000000000003
   343   1      9.3500000000000085      48.620000000000012      39.270000000000003
   344   1      9.3500000000000085      50.490000000000002      37.400000000000013
   345   1       7.480000000000004      48.620000000000012      41.140000000000015
   346   1       7.480000000000004      50.490000000000002      43.010000000000005
   347   1      9.3500000000000085      48.620000000000012      43.010000000000005
   348   1      9.3500000000000085      50.490000000000002      41.140000000000015
   349   1       7.480000000000004      48.620000000000012      44.880000000000017
   350   1       7.480000000000004      50.490000000000002      46.750000000000007
   351   1      9.3500000000000085      48.620000000000012      46.750000000000007
   352   1      9.3500000000000085      50.490000000000002      44.880000000000017
   353   1       7.480000000000004      48.620000000000012      48.620000000000012
   354   1       7.480000000000004      50.490000000000002      50.490000000000002
   355   1      9.3500000000000085      48.620000000000012      50.490000000000002
   356   1      9.3500000000000085      50.490000000000002      48.620000000000012
   357   1       7.480000000000004      48.620000000000012      52.360000000000007
   358   1       7.480000000000004      50.490000000000002      54.230000000000011