model_files/PdCu/PdCu_30000/PdCu_510/PdCu_510_fcc_29899_temp.data (written by ASE) 

29899 	 atoms 
2  atom types
0.0                      85  xlo xhi
0.0                      85  ylo yhi
0.0                      85  zlo zhi


Atoms 

     1   1      1.8875000000000099      32.087500000000013      33.975000000000009
     2   1      1.8875000000000099      32.087500000000013      37.750000000000007
     3   1      1.8875000000000099      32.087500000000013      41.525000000000006
     4   1      1.8875000000000099      32.087500000000013      45.300000000000004
     5   1      1.8875000000000099      32.087500000000013       49.07500000000001
     6   1      1.8875000000000099      33.975000000000009      32.087500000000013
     7   1      1.8875000000000099      33.975000000000009      35.862500000000011
     8   1      1.8875000000000099      35.862500000000011      33.975000000000009
     9   1      1.8875000000000099      33.975000000000009       39.63750000000001
    10   1      1.8875000000000099      35.862500000000011      37.750000000000007
    11   1      1.8875000000000099      33.975000000000009      43.412500000000009
    12   1      1.8875000000000099      35.862500000000011      41.525000000000006
    13   1      1.8875000000000099      33.975000000000009                 47.1875
    14   1      1.8875000000000099      35.862500000000011      45.300000000000004
    15   1      1.8875000000000099      33.975000000000009      50.962500000000013
    16   1      1.8875000000000099      35.862500000000011       49.07500000000001
    17   1      1.8875000000000099      37.750000000000007      32.087500000000013
    18   1      1.8875000000000099      37.750000000000007      35.862500000000011
    19   1      1.8875000000000099       39.63750000000001      33.975000000000009
    20   1      1.8875000000000099      37.750000000000007       39.63750000000001
    21   1      1.8875000000000099       39.63750000000001      37.750000000000007
    22   1      1.8875000000000099      37.750000000000007      43.412500000000009
    23   1      1.8875000000000099       39.63750000000001      41.525000000000006
    24   1      1.8875000000000099      37.750000000000007                 47.1875
    25   1      1.8875000000000099       39.63750000000001      45.300000000000004
    26   1      1.8875000000000099      37.750000000000007      50.962500000000013
    27   1      1.8875000000000099       39.63750000000001       49.07500000000001
    28   1      1.8875000000000099      41.525000000000006      32.087500000000013
    29   1      1.8875000000000099      41.525000000000006      35.862500000000011
    30   1      1.8875000000000099      43.412500000000009      33.975000000000009
    31   1      1.8875000000000099      41.525000000000006       39.63750000000001
    32   1      1.8875000000000099      43.412500000000009      37.750000000000007
    33   1  7.1054273576010019e-15      41.525000000000006      41.525000000000006
    34   1      1.8875000000000099      41.525000000000006      43.412500000000009
    35   1      1.8875000000000099      43.412500000000009      41.525000000000006
    36   1      1.8875000000000099      41.525000000000006                 47.1875
    37   1      1.8875000000000099      43.412500000000009      45.300000000000004
    38   1      1.8875000000000099      41.525000000000006      50.962500000000013
    39   1      1.8875000000000099      43.412500000000009       49.07500000000001
    40   1      1.8875000000000099      45.300000000000004      32.087500000000013
    41   1      1.8875000000000099      45.300000000000004      35.862500000000011
    42   1      1.8875000000000099                 47.1875      33.975000000000009
    43   1      1.8875000000000099      45.300000000000004       39.63750000000001
    44   1      1.8875000000000099                 47.1875      37.750000000000007
    45   1      1.8875000000000099      45.300000000000004      43.412500000000009
    46   1      1.8875000000000099                 47.1875      41.525000000000006
    47   1      1.8875000000000099      45.300000000000004                 47.1875
    48   1      1.8875000000000099                 47.1875      45.300000000000004
    49   1      1.8875000000000099      45.300000000000004      50.962500000000013
    50   1      1.8875000000000099                 47.1875       49.07500000000001
    51   1      1.8875000000000099       49.07500000000001      32.087500000000013
    52   1      1.8875000000000099       49.07500000000001      35.862500000000011
    53   1      1.8875000000000099      50.962500000000013      33.975000000000009
    54   1      1.8875000000000099       49.07500000000001       39.63750000000001
    55   1      1.8875000000000099      50.962500000000013      37.750000000000007
    56   1      1.8875000000000099       49.07500000000001      43.412500000000009
    57   1      1.8875000000000099      50.962500000000013      41.525000000000006
    58   1      1.8875000000000099       49.07500000000001                 47.1875
    59   1      1.8875000000000099      50.962500000000013      45.300000000000004
    60   1      1.8875000000000099       49.07500000000001      50.962500000000013
    61   1      1.8875000000000099      50.962500000000013       49.07500000000001
    62   1      5.6625000000000085      13.212500000000007      15.100000000000009
    63   1      5.6625000000000085      13.212500000000007      18.875000000000007
    64   1      5.6625000000000085      13.212500000000007      22.650000000000009
    65   1      5.6625000000000085      13.212500000000007      26.425000000000008
    66   1      5.6625000000000085      13.212500000000007       30.20000000000001
    67   1      5.6625000000000085      13.212500000000007      33.975000000000009
    68   1      5.6625000000000085      13.212500000000007      37.750000000000007
    69   1      5.6625000000000085      13.212500000000007      41.525000000000006
    70   1      5.6625000000000085      13.212500000000007      45.300000000000004
    71   1      5.6625000000000085      13.212500000000007       49.07500000000001
    72   1      5.6625000000000085      13.212500000000007      52.850000000000001
    73   1      5.6625000000000085      13.212500000000007      56.625000000000007
    74   1      5.6625000000000085      13.212500000000007      60.400000000000006
    75   1      5.6625000000000085      13.212500000000007      64.175000000000011
    76   1      5.6625000000000085      13.212500000000007      67.950000000000003
    77   1      5.6625000000000085      15.100000000000009      13.212500000000007
    78   1      5.6625000000000085      15.100000000000009      16.987500000000008
    79   1      5.6625000000000085      16.987500000000008      15.100000000000009
    80   1      5.6625000000000085      15.100000000000009      20.762500000000006
    81   1      5.6625000000000085      16.987500000000008      18.875000000000007
    82   1      5.6625000000000085      15.100000000000009      24.537500000000005
    83   1      5.6625000000000085      16.987500000000008      22.650000000000009
    84   1      5.6625000000000085      15.100000000000009      28.312500000000007
    85   1      5.6625000000000085      16.987500000000008      26.425000000000008
    86   1      5.6625000000000085      15.100000000000009      32.087500000000013
    87   1      5.6625000000000085      16.987500000000008       30.20000000000001
    88   1      5.6625000000000085      15.100000000000009      35.862500000000011
    89   1      5.6625000000000085      16.987500000000008      33.975000000000009
    90   1      5.6625000000000085      15.100000000000009       39.63750000000001
    91   1      5.6625000000000085      16.987500000000008      37.750000000000007
    92   1      5.6625000000000085      15.100000000000009      43.412500000000009
    93   1      5.6625000000000085      16.987500000000008      41.525000000000006
    94   1      5.6625000000000085      15.100000000000009                 47.1875
    95   1      5.6625000000000085      16.987500000000008      45.300000000000004
    96   1      5.6625000000000085      15.100000000000009      50.962500000000013
    97   1      5.6625000000000085      16.987500000000008       49.07500000000001
    98   1      5.6625000000000085      15.100000000000009      54.737500000000018
    99   1      5.6625000000000085      16.987500000000008      52.850000000000001
   100   1      5.6625000000000085      15.100000000000009       58.51250000000001
   101   1      5.6625000000000085      16.987500000000008      56.625000000000007
   102   1      5.6625000000000085      15.100000000000009      62.287500000000009
   103   1      5.6625000000000085      16.987500000000008      60.400000000000006
   104   1      5.6625000000000085      15.100000000000009      66.062500000000014
   105   1      5.6625000000000085      16.987500000000008      64.175000000000011
   106   1      5.6625000000000085      15.100000000000009      69.837500000000006
   107   1      5.6625000000000085      16.987500000000008      67.950000000000003
   108   1      5.6625000000000085      18.875000000000007      13.212500000000007
   109   1      5.6625000000000085      18.875000000000007      16.987500000000008
   110   1      5.6625000000000085      20.762500000000006      15.100000000000009
   111   1      5.6625000000000085      18.875000000000007      20.762500000000006
   112   1      5.6625000000000085      20.762500000000006      18.875000000000007
   113   1      5.6625000000000085      18.875000000000007      24.537500000000005
   114   1      5.6625000000000085      20.762500000000006      22.650000000000009
   115   1      5.6625000000000085      18.875000000000007      28.312500000000007
   116   1      5.6625000000000085      20.762500000000006      26.425000000000008
   117   1      5.6625000000000085      18.875000000000007      32.087500000000013
   118   1      5.6625000000000085      20.762500000000006       30.20000000000001
   119   1      5.6625000000000085      18.875000000000007      35.862500000000011
   120   1      5.6625000000000085      20.762500000000006      33.975000000000009
   121   1      5.6625000000000085      18.875000000000007       39.63750000000001
   122   1      5.6625000000000085      20.762500000000006      37.750000000000007
   123   1      5.6625000000000085      18.875000000000007      43.412500000000009
   124   1      5.6625000000000085      20.762500000000006      41.525000000000006
   125   1      5.6625000000000085      18.875000000000007                 47.1875
   126   1      5.6625000000000085      20.762500000000006      45.300000000000004
   127   1      5.6625000000000085      18.875000000000007      50.962500000000013
   128   1      5.6625000000000085      20.762500000000006       49.07500000000001
   129   1      5.6625000000000085      18.875000000000007      54.737500000000018
   130   1      5.6625000000000085      20.762500000000006      52.850000000000001
   131   1      5.6625000000000085      18.875000000000007       58.51250000000001
   132   1      5.6625000000000085      20.762500000000006      56.625000000000007
   133   1      5.6625000000000085      18.875000000000007      62.287500000000009
   134   1      5.6625000000000085      20.762500000000006      60.400000000000006
   135   1      5.6625000000000085      18.875000000000007      66.062500000000014
   136   1      5.6625000000000085      20.762500000000006      64.175000000000011
   137   1      5.6625000000000085      18.875000000000007      69.837500000000006
   138   1      5.6625000000000085      20.762500000000006      67.950000000000003
   139   1      5.6625000000000085      22.650000000000009      13.212500000000007
   140   1      5.6625000000000085      22.650000000000009      16.987500000000008
   141   1      5.6625000000000085      24.537500000000005      15.100000000000009
   142   1      5.6625000000000085      22.650000000000009      20.762500000000006
   143   1      5.6625000000000085      24.537500000000005      18.875000000000007
   144   1      3.7750000000000057      22.650000000000009      22.650000000000009
   145   1      3.7750000000000057      24.537500000000005      24.537500000000005
   146   1      5.6625000000000085      22.650000000000009      24.537500000000005
   147   1      5.6625000000000085      24.537500000000005      22.650000000000009
   148   1      3.7750000000000057      22.650000000000009      26.425000000000008
   149   1      3.7750000000000057      24.537500000000005      28.312500000000007
   150   1      5.6625000000000085      22.650000000000009      28.312500000000007
   151   1      5.6625000000000085      24.537500000000005      26.425000000000008
   152   1      3.7750000000000057      22.650000000000009       30.20000000000001
   153   1      3.7750000000000057      24.537500000000005      32.087500000000013
   154   1      5.6625000000000085      22.650000000000009      32.087500000000013
   155   1      5.6625000000000085      24.537500000000005       30.20000000000001
   156   1      3.7750000000000057      22.650000000000009      33.975000000000009
   157   1      3.7750000000000057      24.537500000000005      35.862500000000011
   158   1      5.6625000000000085      22.650000000000009      35.862500000000011
   159   1      5.6625000000000085      24.537500000000005      33.975000000000009
   160   1      3.7750000000000057      22.650000000000009      37.750000000000007
   161   1      3.7750000000000057      24.537500000000005       39.63750000000001
   162   1      5.6625000000000085      22.650000000000009       39.63750000000001
   163   1      5.6625000000000085      24.537500000000005      37.750000000000007
   164   1      3.7750000000000057      22.650000000000009      41.525000000000006
   165   1      3.7750000000000057      24.537500000000005      43.412500000000009
   166   1      5.6625000000000085      22.650000000000009      43.412500000000009
   167   1      5.6625000000000085      24.537500000000005      41.525000000000006
   168   1      3.7750000000000057      22.650000000000009      45.300000000000004
   169   1      3.7750000000000057      24.537500000000005                 47.1875
   170   1      5.6625000000000085      22.650000000000009                 47.1875
   171   1      5.6625000000000085      24.537500000000005      45.300000000000004
   172   1      3.7750000000000057      22.650000000000009       49.07500000000001
   173   1      3.7750000000000057      24.537500000000005      50.962500000000013
   174   1      5.6625000000000085      22.650000000000009      50.962500000000013
   175   1      5.6625000000000085      24.537500000000005       49.07500000000001
   176   1      3.7750000000000057      22.650000000000009      52.850000000000001
   177   1      3.7750000000000057      24.537500000000005      54.737500000000018
   178   1      5.6625000000000085      22.650000000000009      54.737500000000018
   179   1      5.6625000000000085      24.537500000000005      52.850000000000001
   180   1      3.7750000000000057      22.650000000000009      56.625000000000007
   181   1      3.7750000000000057      24.537500000000005       58.51250000000001
   182   1      5.6625000000000085      22.650000000000009       58.51250000000001
   183   1      5.6625000000000085      24.537500000000005      56.625000000000007
   184   1      3.7750000000000057      22.650000000000009      60.400000000000006
   185   1      5.6625000000000085      22.650000000000009      62.287500000000009
   186   1      5.6625000000000085      24.537500000000005      60.400000000000006
   187   1      5.6625000000000085      22.650000000000009      66.062500000000014
   188   1      5.6625000000000085      24.537500000000005      64.175000000000011
   189   1      5.6625000000000085      22.650000000000009      69.837500000000006
   190   1      5.6625000000000085      24.537500000000005      67.950000000000003
   191   1      5.6625000000000085      26.425000000000008      13.212500000000007
   192   1      5.6625000000000085      26.425000000000008      16.987500000000008
   193   1      5.6625000000000085      28.312500000000007      15.100000000000009
   194   1      5.6625000000000085      26.425000000000008      20.762500000000006
   195   1      5.6625000000000085      28.312500000000007      18.875000000000007
   196   1      3.7750000000000057      26.425000000000008      22.650000000000009
   197   1      3.7750000000000057      28.312500000000007      24.537500000000005
   198   1      5.6625000000000085      26.425000000000008      24.537500000000005
   199   1      5.6625000000000085      28.312500000000007      22.650000000000009
   200   1      3.7750000000000057      26.425000000000008      26.425000000000008
   201   1      3.7750000000000057      28.312500000000007      28.312500000000007
   202   1      5.6625000000000085      26.425000000000008      28.312500000000007
   203   1      5.6625000000000085      28.312500000000007      26.425000000000008
   204   1      3.7750000000000057      26.425000000000008       30.20000000000001
   205   1      3.7750000000000057      28.312500000000007      32.087500000000013
   206   1      5.6625000000000085      26.425000000000008      32.087500000000013
   207   1      5.6625000000000085      28.312500000000007       30.20000000000001
   208   1      3.7750000000000057      26.425000000000008      33.975000000000009
   209   1      3.7750000000000057      28.312500000000007      35.862500000000011
   210   1      5.6625000000000085      26.425000000000008      35.862500000000011
   211   1      5.6625000000000085      28.312500000000007      33.975000000000009
   212   1      3.7750000000000057      26.425000000000008      37.750000000000007
   213   1      3.7750000000000057      28.312500000000007       39.63750000000001
   214   1      5.6625000000000085      26.425000000000008       39.63750000000001
   215   1      5.6625000000000085      28.312500000000007      37.750000000000007
   216   1      3.7750000000000057      26.425000000000008      41.525000000000006
   217   1      3.7750000000000057      28.312500000000007      43.412500000000009
   218   1      5.6625000000000085      26.425000000000008      43.412500000000009
   219   1      5.6625000000000085      28.312500000000007      41.525000000000006
   220   1      3.7750000000000057      26.425000000000008      45.300000000000004
   221   1      3.7750000000000057      28.312500000000007                 47.1875
   222   1      5.6625000000000085      26.425000000000008                 47.1875
   223   1      5.6625000000000085      28.312500000000007      45.300000000000004
   224   1      3.7750000000000057      26.425000000000008       49.07500000000001
   225   1      3.7750000000000057      28.312500000000007      50.962500000000013
   226   1      5.6625000000000085      26.425000000000008      50.962500000000013
   227   1      5.6625000000000085      28.312500000000007       49.07500000000001
   228   1      3.7750000000000057      26.425000000000008      52.850000000000001
   229   1      3.7750000000000057      28.312500000000007      54.737500000000018
   230   1      5.6625000000000085      26.425000000000008      54.737500000000018
   231   1      5.6625000000000085      28.312500000000007      52.850000000000001
   232   1      3.7750000000000057      26.425000000000008      56.625000000000007
   233   1      3.7750000000000057      28.312500000000007       58.51250000000001
   234   1      5.6625000000000085      26.425000000000008       58.51250000000001
   235   1      5.6625000000000085      28.312500000000007      56.625000000000007
   236   1      3.7750000000000057      26.425000000000008      60.400000000000006
   237   1      5.6625000000000085      26.425000000000008      62.287500000000009
   238   1      5.6625000000000085      28.312500000000007      60.400000000000006
   239   1      5.6625000000000085      26.425000000000008      66.062500000000014
   240   1      5.6625000000000085      28.312500000000007      64.175000000000011
   241   1      5.6625000000000085      26.425000000000008      69.837500000000006
   242   1      5.6625000000000085      28.312500000000007      67.950000000000003
   243   1      5.6625000000000085       30.20000000000001      13.212500000000007
   244   1      5.6625000000000085       30.20000000000001      16.987500000000008
   245   1      5.6625000000000085      32.087500000000013      15.100000000000009
   246   1      5.6625000000000085       30.20000000000001      20.762500000000006
   247   1      5.6625000000000085      32.087500000000013      18.875000000000007
   248   1      3.7750000000000057       30.20000000000001      22.650000000000009
   249   1      3.7750000000000057      32.087500000000013      24.537500000000005
   250   1      5.6625000000000085       30.20000000000001      24.537500000000005
   251   1      5.6625000000000085      32.087500000000013      22.650000000000009
   252   1      3.7750000000000057       30.20000000000001      26.425000000000008
   253   1      3.7750000000000057      32.087500000000013      28.312500000000007
   254   1      5.6625000000000085       30.20000000000001      28.312500000000007
   255   1      5.6625000000000085      32.087500000000013      26.425000000000008
   256   1      3.7750000000000057       30.20000000000001       30.20000000000001
   257   1      3.7750000000000057      32.087500000000013      32.087500000000013
   258   1      5.6625000000000085       30.20000000000001      32.087500000000013
   259   1      5.6625000000000085      32.087500000000013       30.20000000000001
   260   1      3.7750000000000057       30.20000000000001      33.975000000000009
   261   1      3.7750000000000057      32.087500000000013      35.862500000000011
   262   1      5.6625000000000085       30.20000000000001      35.862500000000011
   263   1      5.6625000000000085      32.087500000000013      33.975000000000009
   264   1      3.7750000000000057       30.20000000000001      37.750000000000007
   265   1      3.7750000000000057      32.087500000000013       39.63750000000001
   266   1      5.6625000000000085       30.20000000000001       39.63750000000001
   267   1      5.6625000000000085      32.087500000000013      37.750000000000007
   268   1      3.7750000000000057       30.20000000000001      41.525000000000006
   269   1      3.7750000000000057      32.087500000000013      43.412500000000009
   270   1      5.6625000000000085       30.20000000000001      43.412500000000009
   271   1      5.6625000000000085      32.087500000000013      41.525000000000006
   272   1      3.7750000000000057       30.20000000000001      45.300000000000004
   273   1      3.7750000000000057      32.087500000000013                 47.1875
   274   1      5.6625000000000085       30.20000000000001                 47.1875
   275   1      5.6625000000000085      32.087500000000013      45.300000000000004
   276   1      3.7750000000000057       30.20000000000001       49.07500000000001
   277   1      3.7750000000000057      32.087500000000013      50.962500000000013
   278   1      5.6625000000000085       30.20000000000001      50.962500000000013
   279   1      5.6625000000000085      32.087500000000013       49.07500000000001
   280   1      3.7750000000000057       30.20000000000001      52.850000000000001
   281   1      3.7750000000000057      32.087500000000013      54.737500000000018
   282   1      5.6625000000000085       30.20000000000001      54.737500000000018
   283   1      5.6625000000000085      32.087500000000013      52.850000000000001
   284   1      3.7750000000000057       30.20000000000001      56.625000000000007
   285   1      3.7750000000000057      32.087500000000013       58.51250000000001
   286   1      5.6625000000000085       30.20000000000001       58.51250000000001
   287   1      5.6625000000000085      32.087500000000013      56.625000000000007
   288   1      3.7750000000000057       30.20000000000001      60.400000000000006
   289   1      5.6625000000000085       30.20000000000001      62.287500000000009
   290   1      5.6625000000000085      32.087500000000013      60.400000000000006
   291   1      5.6625000000000085       30.20000000000001      66.062500000000014
   292   1      5.6625000000000085      32.087500000000013      64.175000000000011
   293   1      5.6625000000000085       30.20000000000001      69.837500000000006
   294   1      5.6625000000000085      32.087500000000013      67.950000000000003
   295   1      5.6625000000000085      33.975000000000009      13.212500000000007
   296   1      5.6625000000000085      33.975000000000009      16.987500000000008
   297   1      5.6625000000000085      35.862500000000011      15.100000000000009
   298   1      5.6625000000000085      33.975000000000009      20.762500000000006
   299   1      5.6625000000000085      35.862500000000011      18.875000000000007
   300   1      3.7750000000000057      33.975000000000009      22.650000000000009
   301   1      3.7750000000000057      35.862500000000011      24.537500000000005
   302   1      5.6625000000000085      33.975000000000009      24.537500000000005
   303   1      5.6625000000000085      35.862500000000011      22.650000000000009
   304   1      3.7750000000000057      33.975000000000009      26.425000000000008
   305   1      3.7750000000000057      35.862500000000011      28.312500000000007
   306   1      5.6625000000000085      33.975000000000009      28.312500000000007
   307   1      5.6625000000000085      35.862500000000011      26.425000000000008
   308   1      3.7750000000000057      33.975000000000009       30.20000000000001
   309   1      3.7750000000000057      35.862500000000011      32.087500000000013
   310   1      5.6625000000000085      33.975000000000009      32.087500000000013
   311   1      5.6625000000000085      35.862500000000011       30.20000000000001
   312   1      3.7750000000000057      33.975000000000009      33.975000000000009
   313   1      3.7750000000000057      35.862500000000011      35.862500000000011
   314   1      5.6625000000000085      33.975000000000009      35.862500000000011
   315   1      5.6625000000000085      35.862500000000011      33.975000000000009
   316   1      3.7750000000000057      33.975000000000009      37.750000000000007
   317   1      3.7750000000000057      35.862500000000011       39.63750000000001
   318   1      5.6625000000000085      33.975000000000009       39.63750000000001
   319   1      5.6625000000000085      35.862500000000011      37.750000000000007
   320   1      3.7750000000000057      33.975000000000009      41.525000000000006
   321   1      3.7750000000000057      35.862500000000011      43.412500000000009
   322   1      5.6625000000000085      33.975000000000009      43.412500000000009
   323   1      5.6625000000000085      35.862500000000011      41.525000000000006
   324   1      3.7750000000000057      33.975000000000009      45.300000000000004
   325   1      3.7750000000000057      35.862500000000011                 47.1875
   326   1      5.6625000000000085      33.975000000000009                 47.1875
   327   1      5.6625000000000085      35.862500000000011      45.300000000000004
   328   1      3.7750000000000057      33.975000000000009       49.07500000000001
   329   1      3.7750000000000057      35.862500000000011      50.962500000000013
   330   1      5.6625000000000085      33.975000000000009      50.962500000000013
   331   1      5.6625000000000085      35.862500000000011       49.07500000000001
   332   1      3.7750000000000057      33.975000000000009      52.850000000000001
   333   1      3.7750000000000057      35.862500000000011      54.737500000000018
   334   1      5.6625000000000085      33.975000000000009      54.737500000000018
   335   1      5.6625000000000085      35.862500000000011      52.850000000000001
   336   1      3.7750000000000057      33.975000000000009      56.625000000000007
   337   1      3.7750000000000057      35.862500000000011       58.51250000000001
   338   1      5.6625000000000085      33.975000000000009       58.51250000000001
   339   1      5.6625000000000085      35.862500000000011      56.625000000000007
   340   1      3.7750000000000057      33.975000000000009      60.400000000000006
   341   1      5.6625000000000085      33.975000000000009      62.287500000000009
   342   1      5.6625000000000085      35.862500000000011      60.400000000000006
   343   1      5.6625000000000085      33.975000000000009      66.062500000000014
   344   1      5.6625000000000085      35.862500000000011      64.175000000000011
   345   1      5.6625000000000085      33.975000000000009      69.837500000000006
   346   1      5.6625000000000085      35.862500000000011      67.950000000000003
   347   1      5.6625000000000085      37.750000000000007      13.212500000000007
   348   1      5.6625000000000085      37.750000000000007      16.987500000000008
   349   1      5.6625000000000085       39.63750000000001      15.100000000000009
   350   1      5.6625000000000085      37.750000000000007      20.762500000000006
   351   1      5.6625000000000085       39.63750000000001      18.875000000000007
   352   1      3.7750000000000057      37.750000000000007      22.650000000000009
   353   1      3.7750000000000057       39.63750000000001      24.537500000000005
   354   1      5.6625000000000085      37.750000000000007      24.537500000000005
   355   1      5.6625000000000085       39.63750000000001      22.650000000000009
   356   1      3.7750000000000057      37.750000000000007      26.425000000000008
   357   1      3.7750000000000057       39.63750000000001      28.312500000000007
   358   1      5.6625000000000085      37.750000000000007      28.312500000000007