LAMMPS data file via write_data, version 30 Nov 2020, timestep = 0

30369 atoms
5 atom types

0 117 xlo xhi
0 117 ylo yhi
0 117 zlo zhi

Masses

1 58.7
2 55.8
3 52
4 59
5 26

Atoms # atomic

1 2 1.805 55.955000000000005 57.760000000000005 0 0 0
2 5 1.805 57.760000000000005 55.955000000000005 0 0 0
3 2 0 57.760000000000005 57.760000000000005 0 0 0
6 3 5.415 52.345 57.760000000000005 0 0 0
7 2 3.61 55.955000000000005 55.955000000000005 0 0 0
8 2 5.415 54.150000000000006 55.955000000000005 0 0 0
9 5 5.415 55.955000000000005 54.150000000000006 0 0 0
10 3 3.61 54.150000000000006 57.760000000000005 0 0 0
13 4 5.415 55.955000000000005 57.760000000000005 0 0 0
15 4 5.415 57.760000000000005 52.345 0 0 0
16 1 3.61 57.760000000000005 54.150000000000006 0 0 0
18 2 5.415 57.760000000000005 55.955000000000005 0 0 0
20 2 3.61 57.760000000000005 57.760000000000005 0 0 0
31 2 9.024999999999999 48.73500000000001 57.760000000000005 0 0 0
32 3 7.22 52.345 52.345 0 0 0
33 4 9.024999999999999 50.540000000000006 52.345 0 0 0
34 3 9.024999999999999 52.345 50.540000000000006 0 0 0
35 3 7.22 52.345 55.955000000000005 0 0 0
36 4 9.024999999999999 50.540000000000006 55.955000000000005 0 0 0
37 2 9.024999999999999 52.345 54.150000000000006 0 0 0
38 4 7.22 50.540000000000006 57.760000000000005 0 0 0
41 1 9.024999999999999 52.345 57.760000000000005 0 0 0
46 1 7.22 55.955000000000005 52.345 0 0 0
47 4 9.024999999999999 54.150000000000006 52.345 0 0 0
48 5 9.024999999999999 55.955000000000005 50.540000000000006 0 0 0
49 3 7.22 54.150000000000006 54.150000000000006 0 0 0
50 5 7.22 55.955000000000005 55.955000000000005 0 0 0
51 3 9.024999999999999 54.150000000000006 55.955000000000005 0 0 0
52 1 9.024999999999999 55.955000000000005 54.150000000000006 0 0 0
53 2 7.22 54.150000000000006 57.760000000000005 0 0 0
56 5 9.024999999999999 55.955000000000005 57.760000000000005 0 0 0
62 3 9.024999999999999 57.760000000000005 48.73500000000001 0 0 0
63 4 7.22 57.760000000000005 50.540000000000006 0 0 0
65 2 9.024999999999999 57.760000000000005 52.345 0 0 0
67 1 7.22 57.760000000000005 54.150000000000006 0 0 0
69 2 9.024999999999999 57.760000000000005 55.955000000000005 0 0 0
71 2 7.22 57.760000000000005 57.760000000000005 0 0 0
104 2 12.635 45.125 57.760000000000005 0 0 0
105 5 10.83 48.73500000000001 48.73500000000001 0 0 0
106 2 12.635 46.93000000000001 48.73500000000001 0 0 0
107 4 12.635 48.73500000000001 46.93000000000001 0 0 0
108 1 10.83 48.73500000000001 52.345 0 0 0
109 2 12.635 46.93000000000001 52.345 0 0 0
110 3 12.635 48.73500000000001 50.540000000000006 0 0 0
111 3 10.83 48.73500000000001 55.955000000000005 0 0 0
112 2 12.635 46.93000000000001 55.955000000000005 0 0 0
113 4 12.635 48.73500000000001 54.150000000000006 0 0 0
114 4 10.83 46.93000000000001 57.760000000000005 0 0 0
117 2 12.635 48.73500000000001 57.760000000000005 0 0 0
125 2 10.83 52.345 48.73500000000001 0 0 0
126 4 12.635 50.540000000000006 48.73500000000001 0 0 0
127 1 12.635 52.345 46.93000000000001 0 0 0
128 2 10.83 50.540000000000006 50.540000000000006 0 0 0
129 3 10.83 52.345 52.345 0 0 0
130 2 12.635 50.540000000000006 52.345 0 0 0
131 2 12.635 52.345 50.540000000000006 0 0 0
132 5 10.83 50.540000000000006 54.150000000000006 0 0 0
133 1 10.83 52.345 55.955000000000005 0 0 0
134 4 12.635 50.540000000000006 55.955000000000005 0 0 0
135 3 12.635 52.345 54.150000000000006 0 0 0
136 3 10.83 50.540000000000006 57.760000000000005 0 0 0
139 1 12.635 52.345 57.760000000000005 0 0 0
149 2 10.83 55.955000000000005 48.73500000000001 0 0 0
150 1 12.635 54.150000000000006 48.73500000000001 0 0 0
151 3 12.635 55.955000000000005 46.93000000000001 0 0 0
152 4 10.83 54.150000000000006 50.540000000000006 0 0 0
153 4 10.83 55.955000000000005 52.345 0 0 0
154 5 12.635 54.150000000000006 52.345 0 0 0
155 4 12.635 55.955000000000005 50.540000000000006 0 0 0
156 4 10.83 54.150000000000006 54.150000000000006 0 0 0
157 4 10.83 55.955000000000005 55.955000000000005 0 0 0
158 4 12.635 54.150000000000006 55.955000000000005 0 0 0
159 3 12.635 55.955000000000005 54.150000000000006 0 0 0
160 5 10.83 54.150000000000006 57.760000000000005 0 0 0
163 2 12.635 55.955000000000005 57.760000000000005 0 0 0
173 5 12.635 57.760000000000005 45.125 0 0 0
174 3 10.83 57.760000000000005 46.93000000000001 0 0 0
176 4 12.635 57.760000000000005 48.73500000000001 0 0 0
178 3 10.83 57.760000000000005 50.540000000000006 0 0 0
180 4 12.635 57.760000000000005 52.345 0 0 0
182 2 10.83 57.760000000000005 54.150000000000006 0 0 0
184 1 12.635 57.760000000000005 55.955000000000005 0 0 0
186 4 10.83 57.760000000000005 57.760000000000005 0 0 0
257 5 16.245 41.51500000000001 57.760000000000005 0 0 0
258 2 14.440000000000007 45.125 48.73500000000001 0 0 0
259 3 16.245 43.32000000000001 48.73500000000001 0 0 0
260 3 16.245 45.125 46.93000000000001 0 0 0
261 3 14.440000000000007 45.125 52.345 0 0 0
262 5 16.245 43.32000000000001 52.345 0 0 0
263 3 16.245 45.125 50.540000000000006 0 0 0
264 3 14.440000000000007 45.125 55.955000000000005 0 0 0
265 2 16.245 43.32000000000001 55.955000000000005 0 0 0
266 5 16.245 45.125 54.150000000000006 0 0 0
267 3 14.440000000000007 43.32000000000001 57.760000000000005 0 0 0
270 5 16.245 45.125 57.760000000000005 0 0 0
278 4 14.440000000000007 48.73500000000001 45.125 0 0 0
279 1 16.245 46.93000000000001 45.125 0 0 0
280 2 16.245 48.73500000000001 43.32000000000001 0 0 0
281 1 14.440000000000007 46.93000000000001 46.93000000000001 0 0 0
282 2 14.440000000000007 48.73500000000001 48.73500000000001 0 0 0
283 2 16.245 46.93000000000001 48.73500000000001 0 0 0
284 4 16.245 48.73500000000001 46.93000000000001 0 0 0
285 1 14.440000000000007 46.93000000000001 50.540000000000006 0 0 0
286 2 14.440000000000007 48.73500000000001 52.345 0 0 0
287 5 16.245 46.93000000000001 52.345 0 0 0
288 2 16.245 48.73500000000001 50.540000000000006 0 0 0
289 5 14.440000000000007 46.93000000000001 54.150000000000006 0 0 0
290 4 14.440000000000007 48.73500000000001 55.955000000000005 0 0 0
291 1 16.245 46.93000000000001 55.955000000000005 0 0 0
292 5 16.245 48.73500000000001 54.150000000000006 0 0 0
293 5 14.440000000000007 46.93000000000001 57.760000000000005 0 0 0
296 5 16.245 48.73500000000001 57.760000000000005 0 0 0
310 3 14.440000000000007 52.345 45.125 0 0 0
311 4 16.245 50.540000000000006 45.125 0 0 0
312 5 16.245 52.345 43.32000000000001 0 0 0
313 5 14.440000000000007 50.540000000000006 46.93000000000001 0 0 0
314 3 14.440000000000007 52.345 48.73500000000001 0 0 0
315 3 16.245 50.540000000000006 48.73500000000001 0 0 0
316 4 16.245 52.345 46.93000000000001 0 0 0
317 4 14.440000000000007 50.540000000000006 50.540000000000006 0 0 0
318 4 14.440000000000007 52.345 52.345 0 0 0
319 4 16.245 50.540000000000006 52.345 0 0 0
320 2 16.245 52.345 50.540000000000006 0 0 0
321 4 14.440000000000007 50.540000000000006 54.150000000000006 0 0 0
322 3 14.440000000000007 52.345 55.955000000000005 0 0 0
323 4 16.245 50.540000000000006 55.955000000000005 0 0 0
324 5 16.245 52.345 54.150000000000006 0 0 0
325 2 14.440000000000007 50.540000000000006 57.760000000000005 0 0 0
328 3 16.245 52.345 57.760000000000005 0 0 0
342 4 14.440000000000007 55.955000000000005 45.125 0 0 0
343 5 16.245 54.150000000000006 45.125 0 0 0
344 4 16.245 55.955000000000005 43.32000000000001 0 0 0
345 4 14.440000000000007 54.150000000000006 46.93000000000001 0 0 0
346 5 14.440000000000007 55.955000000000005 48.73500000000001 0 0 0
347 4 16.245 54.150000000000006 48.73500000000001 0 0 0
348 1 16.245 55.955000000000005 46.93000000000001 0 0 0
349 4 14.440000000000007 54.150000000000006 50.540000000000006 0 0 0
350 3 14.440000000000007 55.955000000000005 52.345 0 0 0
351 3 16.245 54.150000000000006 52.345 0 0 0
352 4 16.245 55.955000000000005 50.540000000000006 0 0 0
353 1 14.440000000000007 54.150000000000006 54.150000000000006 0 0 0
354 4 14.440000000000007 55.955000000000005 55.955000000000005 0 0 0
355 5 16.245 54.150000000000006 55.955000000000005 0 0 0
356 1 16.245 55.955000000000005 54.150000000000006 0 0 0
357 2 14.440000000000007 54.150000000000006 57.760000000000005 0 0 0
360 1 16.245 55.955000000000005 57.760000000000005 0 0 0
374 1 16.245 57.760000000000005 41.51500000000001 0 0 0
375 5 14.440000000000007 57.760000000000005 43.32000000000001 0 0 0
377 3 16.245 57.760000000000005 45.125 0 0 0
379 2 14.440000000000007 57.760000000000005 46.93000000000001 0 0 0
381 1 16.245 57.760000000000005 48.73500000000001 0 0 0
383 1 14.440000000000007 57.760000000000005 50.540000000000006 0 0 0
385 2 16.245 57.760000000000005 52.345 0 0 0
387 1 14.440000000000007 57.760000000000005 54.150000000000006 0 0 0
389 2 16.245 57.760000000000005 55.955000000000005 0 0 0
391 2 14.440000000000007 57.760000000000005 57.760000000000005 0 0 0
510 4 19.855 37.905 57.760000000000005 0 0 0
511 5 19.855 41.51500000000001 43.32000000000001 0 0 0
512 3 18.050000000000008 41.51500000000001 48.73500000000001 0 0 0
513 2 19.855 39.71000000000001 48.73500000000001 0 0 0
514 3 19.855 41.51500000000001 46.93000000000001 0 0 0
515 2 18.050000000000008 41.51500000000001 52.345 0 0 0
516 4 19.855 39.71000000000001 52.345 0 0 0
517 3 19.855 41.51500000000001 50.540000000000006 0 0 0
518 2 18.050000000000008 41.51500000000001 55.955000000000005 0 0 0
519 1 19.855 39.71000000000001 55.955000000000005 0 0 0
520 3 19.855 41.51500000000001 54.150000000000006 0 0 0
521 2 18.050000000000008 39.71000000000001 57.760000000000005 0 0 0
524 2 19.855 41.51500000000001 57.760000000000005 0 0 0
533 4 19.855 43.32000000000001 41.51500000000001 0 0 0
534 2 18.050000000000008 43.32000000000001 43.32000000000001 0 0 0
535 4 18.050000000000008 45.125 45.125 0 0 0
536 2 19.855 43.32000000000001 45.125 0 0 0
537 3 19.855 45.125 43.32000000000001 0 0 0
538 1 18.050000000000008 43.32000000000001 46.93000000000001 0 0 0
539 3 18.050000000000008 45.125 48.73500000000001 0 0 0
540 4 19.855 43.32000000000001 48.73500000000001 0 0 0
541 3 19.855 45.125 46.93000000000001 0 0 0
542 4 18.050000000000008 43.32000000000001 50.540000000000006 0 0 0
543 2 18.050000000000008 45.125 52.345 0 0 0
544 4 19.855 43.32000000000001 52.345 0 0 0
545 2 19.855 45.125 50.540000000000006 0 0 0
546 2 18.050000000000008 43.32000000000001 54.150000000000006 0 0 0
547 2 18.050000000000008 45.125 55.955000000000005 0 0 0
548 5 19.855 43.32000000000001 55.955000000000005 0 0 0
549 1 19.855 45.125 54.150000000000006 0 0 0
550 1 18.050000000000008 43.32000000000001 57.760000000000005 0 0 0
553 4 19.855 45.125 57.760000000000005 0 0 0
569 5 18.050000000000008 48.73500000000001 41.51500000000001 0 0 0
570 4 19.855 46.93000000000001 41.51500000000001 0 0 0
571 5 19.855 48.73500000000001 39.71000000000001 0 0 0
572 2 18.050000000000008 46.93000000000001 43.32000000000001 0 0 0
573 4 18.050000000000008 48.73500000000001 45.125 0 0 0
574 3 19.855 46.93000000000001 45.125 0 0 0
575 1 19.855 48.73500000000001 43.32000000000001 0 0 0
576 1 18.050000000000008 46.93000000000001 46.93000000000001 0 0 0
577 3 18.050000000000008 48.73500000000001 48.73500000000001 0 0 0
578 3 19.855 46.93000000000001 48.73500000000001 0 0 0
579 2 19.855 48.73500000000001 46.93000000000001 0 0 0
580 4 18.050000000000008 46.93000000000001 50.540000000000006 0 0 0
581 4 18.050000000000008 48.73500000000001 52.345 0 0 0
582 5 19.855 46.93000000000001 52.345 0 0 0
583 4 19.855 48.73500000000001 50.540000000000006 0 0 0
584 5 18.050000000000008 46.93000000000001 54.150000000000006 0 0 0
585 2 18.050000000000008 48.73500000000001 55.955000000000005 0 0 0
586 2 19.855 46.93000000000001 55.955000000000005 0 0 0
587 5 19.855 48.73500000000001 54.150000000000006 0 0 0
588 1 18.050000000000008 46.93000000000001 57.760000000000005 0 0 0
591 4 19.855 48.73500000000001 57.760000000000005 0 0 0
609 1 18.050000000000008 52.345 41.51500000000001 0 0 0
610 2 19.855 50.540000000000006 41.51500000000001 0 0 0
611 2 19.855 52.345 39.71000000000001 0 0 0
612 3 18.050000000000008 50.540000000000006 43.32000000000001 0 0 0
613 3 18.050000000000008 52.345 45.125 0 0 0
614 5 19.855 50.540000000000006 45.125 0 0 0
615 5 19.855 52.345 43.32000000000001 0 0 0
616 3 18.050000000000008 50.540000000000006 46.93000000000001 0 0 0
617 1 18.050000000000008 52.345 48.73500000000001 0 0 0
618 2 19.855 50.540000000000006 48.73500000000001 0 0 0
619 3 19.855 52.345 46.93000000000001 0 0 0
620 3 18.050000000000008 50.540000000000006 50.540000000000006 0 0 0
621 2 18.050000000000008 52.345 52.345 0 0 0
622 4 19.855 50.540000000000006 52.345 0 0 0
623 2 19.855 52.345 50.540000000000006 0 0 0
624 3 18.050000000000008 50.540000000000006 54.150000000000006 0 0 0
625 5 18.050000000000008 52.345 55.955000000000005 0 0 0
626 1 19.855 50.540000000000006 55.955000000000005 0 0 0
627 1 19.855 52.345 54.150000000000006 0 0 0
628 2 18.050000000000008 50.540000000000006 57.760000000000005 0 0 0
631 5 19.855 52.345 57.760000000000005 0 0 0
649 3 18.050000000000008 55.955000000000005 41.51500000000001 0 0 0
650 2 19.855 54.150000000000006 41.51500000000001 0 0 0
651 5 19.855 55.955000000000005 39.71000000000001 0 0 0
652 1 18.050000000000008 54.150000000000006 43.32000000000001 0 0 0
653 5 18.050000000000008 55.955000000000005 45.125 0 0 0
654 3 19.855 54.150000000000006 45.125 0 0 0
655 1 19.855 55.955000000000005 43.32000000000001 0 0 0
656 3 18.050000000000008 54.150000000000006 46.93000000000001 0 0 0
657 3 18.050000000000008 55.955000000000005 48.73500000000001 0 0 0
658 3 19.855 54.150000000000006 48.73500000000001 0 0 0
659 2 19.855 55.955000000000005 46.93000000000001 0 0 0
660 5 18.050000000000008 54.150000000000006 50.540000000000006 0 0 0
661 2 18.050000000000008 55.955000000000005 52.345 0 0 0
662 5 19.855 54.150000000000006 52.345 0 0 0
663 5 19.855 55.955000000000005 50.540000000000006 0 0 0
664 2 18.050000000000008 54.150000000000006 54.150000000000006 0 0 0
665 1 18.050000000000008 55.955000000000005 55.955000000000005 0 0 0
666 2 19.855 54.150000000000006 55.955000000000005 0 0 0
667 2 19.855 55.955000000000005 54.150000000000006 0 0 0
668 3 18.050000000000008 54.150000000000006 57.760000000000005 0 0 0
671 3 19.855 55.955000000000005 57.760000000000005 0 0 0
689 5 19.855 57.760000000000005 37.905 0 0 0
690 1 18.050000000000008 57.760000000000005 39.71000000000001 0 0 0
692 3 19.855 57.760000000000005 41.51500000000001 0 0 0
694 4 18.050000000000008 57.760000000000005 43.32000000000001 0 0 0
696 1 19.855 57.760000000000005 45.125 0 0 0
698 1 18.050000000000008 57.760000000000005 46.93000000000001 0 0 0
700 1 19.855 57.760000000000005 48.73500000000001 0 0 0
702 2 18.050000000000008 57.760000000000005 50.540000000000006 0 0 0
704 4 19.855 57.760000000000005 52.345 0 0 0
706 2 18.050000000000008 57.760000000000005 54.150000000000006 0 0 0
708 1 19.855 57.760000000000005 55.955000000000005 0 0 0
710 5 18.050000000000008 57.760000000000005 57.760000000000005 0 0 0
891 4 23.465 34.29500000000001 57.760000000000005 0 0 0
892 5 23.465 37.905 39.71000000000001 0 0 0
893 2 23.465 37.905 43.32000000000001 0 0 0
894 5 21.660000000000007 37.905 48.73500000000001 0 0 0
895 2 23.465 36.10000000000001 48.73500000000001 0 0 0
896 5 23.465 37.905 46.93000000000001 0 0 0
897 5 21.660000000000007 37.905 52.345 0 0 0
898 2 23.465 36.10000000000001 52.345 0 0 0
899 1 23.465 37.905 50.540000000000006 0 0 0
900 2 21.660000000000007 37.905 55.955000000000005 0 0 0
901 1 23.465 36.10000000000001 55.955000000000005 0 0 0
902 5 23.465 37.905 54.150000000000006 0 0 0
903 4 21.660000000000007 36.10000000000001 57.760000000000005 0 0 0
906 2 23.465 37.905 57.760000000000005 0 0 0
916 2 23.465 39.71000000000001 37.905 0 0 0
917 4 21.660000000000007 39.71000000000001 39.71000000000001 0 0 0
918 4 21.660000000000007 41.51500000000001 41.51500000000001 0 0 0
919 3 23.465 39.71000000000001 41.51500000000001 0 0 0
920 1 23.465 41.51500000000001 39.71000000000001 0 0 0
921 5 21.660000000000007 39.71000000000001 43.32000000000001 0 0 0
922 5 21.660000000000007 41.51500000000001 45.125 0 0 0
923 4 23.465 39.71000000000001 45.125 0 0 0
924 1 23.465 41.51500000000001 43.32000000000001 0 0 0
925 3 21.660000000000007 39.71000000000001 46.93000000000001 0 0 0
926 5 21.660000000000007 41.51500000000001 48.73500000000001 0 0 0
927 5 23.465 39.71000000000001 48.73500000000001 0 0 0
928 2 23.465 41.51500000000001 46.93000000000001 0 0 0
929 2 21.660000000000007 39.71000000000001 50.540000000000006 0 0 0
930 5 21.660000000000007 41.51500000000001 52.345 0 0 0
931 5 23.465 39.71000000000001 52.345 0 0 0
932 1 23.465 41.51500000000001 50.540000000000006 0 0 0
933 2 21.660000000000007 39.71000000000001 54.150000000000006 0 0 0
934 2 21.660000000000007 41.51500000000001 55.955000000000005 0 0 0
935 2 23.465 39.71000000000001 55.955000000000005 0 0 0
936 5 23.465 41.51500000000001 54.150000000000006 0 0 0
937 5 21.660000000000007 39.71000000000001 57.760000000000005 0 0 0
940 3 23.465 41.51500000000001 57.760000000000005 0 0 0
960 5 23.465 43.32000000000001 37.905 0 0 0
961 4 21.660000000000007 43.32000000000001 39.71000000000001 0 0 0
962 2 21.660000000000007 45.125 41.51500000000001 0 0 0
963 5 23.465 43.32000000000001 41.51500000000001 0 0 0
964 4 23.465 45.125 39.71000000000001 0 0 0
965 1 21.660000000000007 43.32000000000001 43.32000000000001 0 0 0
966 1 21.660000000000007 45.125 45.125 0 0 0
967 1 23.465 43.32000000000001 45.125 0 0 0
968 2 23.465 45.125 43.32000000000001 0 0 0
969 4 21.660000000000007 43.32000000000001 46.93000000000001 0 0 0
970 4 21.660000000000007 45.125 48.73500000000001 0 0 0
971 5 23.465 43.32000000000001 48.73500000000001 0 0 0
972 5 23.465 45.125 46.93000000000001 0 0 0
973 4 21.660000000000007 43.32000000000001 50.540000000000006 0 0 0
974 1 21.660000000000007 45.125 52.345 0 0 0
975 5 23.465 43.32000000000001 52.345 0 0 0
976 4 23.465 45.125 50.540000000000006 0 0 0
977 3 21.660000000000007 43.32000000000001 54.150000000000006 0 0 0
978 4 21.660000000000007 45.125 55.955000000000005 0 0 0
979 2 23.465 43.32000000000001 55.955000000000005 0 0 0
980 5 23.465 45.125 54.150000000000006 0 0 0
981 1 21.660000000000007 43.32000000000001 57.760000000000005 0 0 0
984 3 23.465 45.125 57.760000000000005 0 0 0
1004 1 21.660000000000007 48.73500000000001 37.905 0 0 0
1005 3 23.465 46.93000000000001 37.905 0 0 0
1006 1 23.465 48.73500000000001 36.10000000000001 0 0 0
1007 1 21.660000000000007 46.93000000000001 39.71000000000001 0 0 0
1008 3 21.660000000000007 48.73500000000001 41.51500000000001 0 0 0
1009 3 23.465 46.93000000000001 41.51500000000001 0 0 0
1010 1 23.465 48.73500000000001 39.71000000000001 0 0 0
1011 3 21.660000000000007 46.93000000000001 43.32000000000001 0 0 0
1012 1 21.660000000000007 48.73500000000001 45.125 0 0 0
1013 5 23.465 46.93000000000001 45.125 0 0 0
1014 2 23.465 48.73500000000001 43.32000000000001 0 0 0
1015 5 21.660000000000007 46.93000000000001 46.93000000000001 0 0 0
1016 1 21.660000000000007 48.73500000000001 48.73500000000001 0 0 0
1017 4 23.465 46.93000000000001 48.73500000000001 0 0 0
1018 1 23.465 48.73500000000001 46.93000000000001 0 0 0
1019 3 21.660000000000007 46.93000000000001 50.540000000000006 0 0 0
1020 5 21.660000000000007 48.73500000000001 52.345 0 0 0
1021 5 23.465 46.93000000000001 52.345 0 0 0
1022 2 23.465 48.73500000000001 50.540000000000006 0 0 0
1023 3 21.660000000000007 46.93000000000001 54.150000000000006 0 0 0
1024 5 21.660000000000007 48.73500000000001 55.955000000000005 0 0 0
1025 2 23.465 46.93000000000001 55.955000000000005 0 0 0
1026 4 23.465 48.73500000000001 54.150000000000006 0 0 0
1027 5 21.660000000000007 46.93000000000001 57.760000000000005 0 0 0
1030 2 23.465 48.73500000000001 57.760000000000005 0 0 0
1052 5 21.660000000000007 52.345 37.905 0 0 0
1053 4 23.465 50.540000000000006 37.905 0 0 0
1054 4 23.465 52.345 36.10000000000001 0 0 0
1055 1 21.660000000000007 50.540000000000006 39.71000000000001 0 0 0
1056 4 21.660000000000007 52.345 41.51500000000001 0 0 0
1057 5 23.465 50.540000000000006 41.51500000000001 0 0 0
1058 3 23.465 52.345 39.71000000000001 0 0 0
1059 5 21.660000000000007 50.540000000000006 43.32000000000001 0 0 0
1060 2 21.660000000000007 52.345 45.125 0 0 0
1061 5 23.465 50.540000000000006 45.125 0 0 0
1062 1 23.465 52.345 43.32000000000001 0 0 0
1063 2 21.660000000000007 50.540000000000006 46.93000000000001 0 0 0
1064 2 21.660000000000007 52.345 48.73500000000001 0 0 0
1065 2 23.465 50.540000000000006 48.73500000000001 0 0 0
1066 3 23.465 52.345 46.93000000000001 0 0 0
1067 4 21.660000000000007 50.540000000000006 50.540000000000006 0 0 0
1068 4 21.660000000000007 52.345 52.345 0 0 0
1069 2 23.465 50.540000000000006 52.345 0 0 0
1070 5 23.465 52.345 50.540000000000006 0 0 0
1071 2 21.660000000000007 50.540000000000006 54.150000000000006 0 0 0
1072 4 21.660000000000007 52.345 55.955000000000005 0 0 0
1073 3 23.465 50.540000000000006 55.955000000000005 0 0 0
1074 1 23.465 52.345 54.150000000000006 0 0 0
1075 1 21.660000000000007 50.540000000000006 57.760000000000005 0 0 0
1078 4 23.465 52.345 57.760000000000005 0 0 0
1100 5 21.660000000000007 55.955000000000005 37.905 0 0 0
1101 3 23.465 54.150000000000006 37.905 0 0 0
1102 4 23.465 55.955000000000005 36.10000000000001 0 0 0
1103 3 21.660000000000007 54.150000000000006 39.71000000000001 0 0 0
1104 2 21.660000000000007 55.955000000000005 41.51500000000001 0 0 0
1105 4 23.465 54.150000000000006 41.51500000000001 0 0 0
1106 5 23.465 55.955000000000005 39.71000000000001 0 0 0
1107 3 21.660000000000007 54.150000000000006 43.32000000000001 0 0 0
1108 5 21.660000000000007 55.955000000000005 45.125 0 0 0
1109 4 23.465 54.150000000000006 45.125 0 0 0
1110 2 23.465 55.955000000000005 43.32000000000001 0 0 0
1111 1 21.660000000000007 54.150000000000006 46.93000000000001 0 0 0
1112 1 21.660000000000007 55.955000000000005 48.73500000000001 0 0 0
1113 2 23.465 54.150000000000006 48.73500000000001 0 0 0
1114 2 23.465 55.955000000000005 46.93000000000001 0 0 0
1115 2 21.660000000000007 54.150000000000006 50.540000000000006 0 0 0
1116 1 21.660000000000007 55.955000000000005 52.345 0 0 0
1117 5 23.465 54.150000000000006 52.345 0 0 0
1118 2 23.465 55.955000000000005 50.540000000000006 0 0 0
1119 4 21.660000000000007 54.150000000000006 54.150000000000006 0 0 0
1120 1 21.660000000000007 55.955000000000005 55.955000000000005 0 0 0
1121 4 23.465 54.150000000000006 55.955000000000005 0 0 0
1122 1 23.465 55.955000000000005 54.150000000000006 0 0 0
1123 2 21.660000000000007 54.150000000000006 57.760000000000005 0 0 0
1126 3 23.465 55.955000000000005 57.760000000000005 0 0 0
1148 4 23.465 57.760000000000005 34.29500000000001 0 0 0
1149 5 21.660000000000007 57.760000000000005 36.10000000000001 0 0 0
1151 3 23.465 57.760000000000005 37.905 0 0 0
1153 5 21.660000000000007 57.760000000000005 39.71000000000001 0 0 0
1155 4 23.465 57.760000000000005 41.51500000000001 0 0 0
1157 3 21.660000000000007 57.760000000000005 43.32000000000001 0 0 0
1159 5 23.465 57.760000000000005 45.125 0 0 0
1161 2 21.660000000000007 57.760000000000005 46.93000000000001 0 0 0
1163 5 23.465 57.760000000000005 48.73500000000001 0 0 0
1165 4 21.660000000000007 57.760000000000005 50.540000000000006 0 0 0
1167 4 23.465 57.760000000000005 52.345 0 0 0
1169 3 21.660000000000007 57.760000000000005 54.150000000000006 0 0 0
1171 4 23.465 57.760000000000005 55.955000000000005 0 0 0
1173 4 21.660000000000007 57.760000000000005 57.760000000000005 0 0 0
1432 5 27.075000000000003 30.685000000000002 57.760000000000005 0 0 0
1433 5 27.075000000000003 34.29500000000001 39.71000000000001 0 0 0
1434 1 27.075000000000003 34.29500000000001 43.32000000000001 0 0 0
1435 3 25.270000000000007 34.29500000000001 48.73500000000001 0 0 0
1436 5 27.075000000000003 32.49 48.73500000000001 0 0 0
1437 2 27.075000000000003 34.29500000000001 46.93000000000001 0 0 0
1438 2 25.270000000000007 34.29500000000001 52.345 0 0 0
1439 4 27.075000000000003 32.49 52.345 0 0 0
1440 1 27.075000000000003 34.29500000000001 50.540000000000006 0 0 0
1441 3 25.270000000000007 34.29500000000001 55.955000000000005 0 0 0
1442 5 27.075000000000003 32.49 55.955000000000005 0 0 0
1443 2 27.075000000000003 34.29500000000001 54.150000000000006 0 0 0
1444 4 25.270000000000007 32.49 57.760000000000005 0 0 0
1447 5 27.075000000000003 34.29500000000001 57.760000000000005 0 0 0
1457 1 25.270000000000007 37.905 37.905 0 0 0
1458 3 27.075000000000003 36.10000000000001 37.905 0 0 0
1459 1 27.075000000000003 37.905 36.10000000000001 0 0 0
1460 3 25.270000000000007 36.10000000000001 39.71000000000001 0 0 0
1461 3 25.270000000000007 37.905 41.51500000000001 0 0 0
1462 1 27.075000000000003 36.10000000000001 41.51500000000001 0 0 0
1463 2 27.075000000000003 37.905 39.71000000000001 0 0 0
1464 4 25.270000000000007 36.10000000000001 43.32000000000001 0 0 0
1465 2 25.270000000000007 37.905 45.125 0 0 0
1466 3 27.075000000000003 36.10000000000001 45.125 0 0 0
1467 5 27.075000000000003 37.905 43.32000000000001 0 0 0
1468 5 25.270000000000007 36.10000000000001 46.93000000000001 0 0 0
1469 1 25.270000000000007 37.905 48.73500000000001 0 0 0
1470 5 27.075000000000003 36.10000000000001 48.73500000000001 0 0 0
1471 2 27.075000000000003 37.905 46.93000000000001 0 0 0
1472 4 25.270000000000007 36.10000000000001 50.540000000000006 0 0 0
1473 3 25.270000000000007 37.905 52.345 0 0 0
1474 5 27.075000000000003 36.10000000000001 52.345 0 0 0
1475 2 27.075000000000003 37.905 50.540000000000006 0 0 0
1476 5 25.270000000000007 36.10000000000001 54.150000000000006 0 0 0
1477 1 25.270000000000007 37.905 55.955000000000005 0 0 0
1478 4 27.075000000000003 36.10000000000001 55.955000000000005 0 0 0
1479 4 27.075000000000003 37.905 54.150000000000006 0 0 0
1480 2 25.270000000000007 36.10000000000001 57.760000000000005 0 0 0
1483 2 27.075000000000003 37.905 57.760000000000005 0 0 0
1505 1 27.075000000000003 39.71000000000001 34.29500000000001 0 0 0
1506 3 25.270000000000007 39.71000000000001 36.10000000000001 0 0 0
1507 3 25.270000000000007 41.51500000000001 37.905 0 0 0
1508 4 27.075000000000003 39.71000000000001 37.905 0 0 0
1509 2 27.075000000000003 41.51500000000001 36.10000000000001 0 0 0
1510 1 25.270000000000007 39.71000000000001 39.71000000000001 0 0 0
1511 1 25.270000000000007 41.51500000000001 41.51500000000001 0 0 0
1512 5 27.075000000000003 39.71000000000001 41.51500000000001 0 0 0
1513 3 27.075000000000003 41.51500000000001 39.71000000000001 0 0 0
1514 3 25.270000000000007 39.71000000000001 43.32000000000001 0 0 0
1515 1 25.270000000000007 41.51500000000001 45.125 0 0 0
1516 3 27.075000000000003 39.71000000000001 45.125 0 0 0
1517 4 27.075000000000003 41.51500000000001 43.32000000000001 0 0 0
1518 2 25.270000000000007 39.71000000000001 46.93000000000001 0 0 0
1519 4 25.270000000000007 41.51500000000001 48.73500000000001 0 0 0
1520 3 27.075000000000003 39.71000000000001 48.73500000000001 0 0 0
1521 5 27.075000000000003 41.51500000000001 46.93000000000001 0 0 0
1522 4 25.270000000000007 39.71000000000001 50.540000000000006 0 0 0
1523 2 25.270000000000007 41.51500000000001 52.345 0 0 0
1524 4 27.075000000000003 39.71000000000001 52.345 0 0 0
1525 4 27.075000000000003 41.51500000000001 50.540000000000006 0 0 0
1526 2 25.270000000000007 39.71000000000001 54.150000000000006 0 0 0
1527 4 25.270000000000007 41.51500000000001 55.955000000000005 0 0 0
1528 2 27.075000000000003 39.71000000000001 55.955000000000005 0 0 0
1529 5 27.075000000000003 41.51500000000001 54.150000000000006 0 0 0
1530 5 25.270000000000007 39.71000000000001 57.760000000000005 0 0 0
1533 3 27.075000000000003 41.51500000000001 57.760000000000005 0 0 0
1557 3 27.075000000000003 43.32000000000001 34.29500000000001 0 0 0
1558 5 25.270000000000007 43.32000000000001 36.10000000000001 0 0 0
1559 2 25.270000000000007 45.125 37.905 0 0 0
1560 1 27.075000000000003 43.32000000000001 37.905 0 0 0
1561 2 27.075000000000003 45.125 36.10000000000001 0 0 0
1562 2 25.270000000000007 43.32000000000001 39.71000000000001 0 0 0
1563 3 25.270000000000007 45.125 41.51500000000001 0 0 0
1564 3 27.075000000000003 43.32000000000001 41.51500000000001 0 0 0
1565 4 27.075000000000003 45.125 39.71000000000001 0 0 0
1566 1 25.270000000000007 43.32000000000001 43.32000000000001 0 0 0
1567 5 25.270000000000007 45.125 45.125 0 0 0
1568 3 27.075000000000003 43.32000000000001 45.125 0 0 0
1569 2 27.075000000000003 45.125 43.32000000000001 0 0 0
1570 4 25.270000000000007 43.32000000000001 46.93000000000001 0 0 0
1571 4 25.270000000000007 45.125 48.73500000000001 0 0 0
1572 5 27.075000000000003 43.32000000000001 48.73500000000001 0 0 0
1573 4 27.075000000000003 45.125 46.93000000000001 0 0 0
1574 2 25.270000000000007 43.32000000000001 50.540000000000006 0 0 0
1575 1 25.270000000000007 45.125 52.345 0 0 0
1576 3 27.075000000000003 43.32000000000001 52.345 0 0 0
1577 2 27.075000000000003 45.125 50.540000000000006 0 0 0
1578 4 25.270000000000007 43.32000000000001 54.150000000000006 0 0 0
1579 2 25.270000000000007 45.125 55.955000000000005 0 0 0
1580 2 27.075000000000003 43.32000000000001 55.955000000000005 0 0 0
1581 3 27.075000000000003 45.125 54.150000000000006 0 0 0
1582 3 25.270000000000007 43.32000000000001 57.760000000000005 0 0 0
1585 4 27.075000000000003 45.125 57.760000000000005 0 0 0
1609 4 25.270000000000007 48.73500000000001 34.29500000000001 0 0 0
1610 1 27.075000000000003 46.93000000000001 34.29500000000001 0 0 0
1611 5 27.075000000000003 48.73500000000001 32.49 0 0 0
1612 2 25.270000000000007 46.93000000000001 36.10000000000001 0 0 0
1613 4 25.270000000000007 48.73500000000001 37.905 0 0 0
1614 3 27.075000000000003 46.93000000000001 37.905 0 0 0
1615 1 27.075000000000003 48.73500000000001 36.10000000000001 0 0 0
1616 2 25.270000000000007 46.93000000000001 39.71000000000001 0 0 0
1617 1 25.270000000000007 48.73500000000001 41.51500000000001 0 0 0
1618 5 27.075000000000003 46.93000000000001 41.51500000000001 0 0 0
1619 5 27.075000000000003 48.73500000000001 39.71000000000001 0 0 0
1620 1 25.270000000000007 46.93000000000001 43.32000000000001 0 0 0
1621 1 25.270000000000007 48.73500000000001 45.125 0 0 0