model_files/PtCu/PtCu_30000/PtCu_533/PtCu_533_fcc_30085_temp.data (written by ASE) 

30085 	 atoms 
2  atom types
0.0                     113  xlo xhi
0.0                     113  ylo yhi
0.0                     113  zlo zhi


Atoms 

     1   1                       0      53.899999999999999      55.825000000000003
     2   1                       0      55.825000000000003      53.899999999999999
     3   1                       0      55.825000000000003      57.749999999999993
     4   1                       0      57.749999999999993      55.825000000000003
     5   1       3.850000000000001      50.050000000000004      55.825000000000003
     6   1       1.925000000000004      53.899999999999999      53.899999999999999
     7   1       3.850000000000001      51.975000000000001      53.899999999999999
     8   1       3.850000000000001      53.899999999999999      51.975000000000001
     9   1       1.925000000000004      51.975000000000001      55.825000000000003
    10   1       1.925000000000004      53.899999999999999      57.749999999999993
    11   1       3.850000000000001      51.975000000000001      57.749999999999993
    12   1       3.850000000000001      53.899999999999999      55.825000000000003
    13   1       3.850000000000001      53.899999999999999      59.675000000000004
    14   1       3.850000000000001      55.825000000000003      50.050000000000004
    15   1       1.925000000000004      55.825000000000003      51.975000000000001
    16   1       1.925000000000004      57.749999999999993      53.899999999999999
    17   1       3.850000000000001      55.825000000000003      53.899999999999999
    18   1       3.850000000000001      57.749999999999993      51.975000000000001
    19   1       1.925000000000004      55.825000000000003      55.825000000000003
    20   1       1.925000000000004      57.749999999999993      57.749999999999993
    21   1       3.850000000000001      55.825000000000003      57.749999999999993
    22   1       3.850000000000001      57.749999999999993      55.825000000000003
    23   1       1.925000000000004      55.825000000000003      59.675000000000004
    24   1       3.850000000000001      55.825000000000003      61.600000000000009
    25   1       3.850000000000001      57.749999999999993      59.675000000000004
    26   1       3.850000000000001      59.675000000000004      53.899999999999999
    27   1       1.925000000000004      59.675000000000004      55.825000000000003
    28   1       3.850000000000001      59.675000000000004      57.749999999999993
    29   1       3.850000000000001      61.600000000000009      55.825000000000003
    30   1       7.700000000000002      42.350000000000001      55.825000000000003
    31   1      5.7750000000000048      46.200000000000003      53.899999999999999
    32   1       7.700000000000002      44.275000000000006      53.899999999999999
    33   1       7.700000000000002      46.200000000000003      51.975000000000001
    34   1      5.7750000000000048      44.275000000000006      55.825000000000003
    35   1      5.7750000000000048      46.200000000000003      57.749999999999993
    36   1       7.700000000000002      44.275000000000006      57.749999999999993
    37   1       7.700000000000002      46.200000000000003      55.825000000000003
    38   1       7.700000000000002      46.200000000000003      59.675000000000004
    39   1      5.7750000000000048      50.050000000000004      50.050000000000004
    40   1       7.700000000000002      48.125000000000007      50.050000000000004
    41   1       7.700000000000002      50.050000000000004      48.125000000000007
    42   1      5.7750000000000048      48.125000000000007      51.975000000000001
    43   1      5.7750000000000048      50.050000000000004      53.899999999999999
    44   1       7.700000000000002      48.125000000000007      53.899999999999999
    45   1       7.700000000000002      50.050000000000004      51.975000000000001
    46   1      5.7750000000000048      48.125000000000007      55.825000000000003
    47   1      5.7750000000000048      50.050000000000004      57.749999999999993
    48   1       7.700000000000002      48.125000000000007      57.749999999999993
    49   1       7.700000000000002      50.050000000000004      55.825000000000003
    50   1      5.7750000000000048      48.125000000000007      59.675000000000004
    51   1      5.7750000000000048      50.050000000000004      61.600000000000009
    52   1       7.700000000000002      48.125000000000007      61.600000000000009
    53   1       7.700000000000002      50.050000000000004      59.675000000000004
    54   1       7.700000000000002      50.050000000000004      63.525000000000006
    55   1      5.7750000000000048      53.899999999999999      46.200000000000003
    56   1       7.700000000000002      51.975000000000001      46.200000000000003
    57   1       7.700000000000002      53.899999999999999      44.275000000000006
    58   1      5.7750000000000048      51.975000000000001      48.125000000000007
    59   1      5.7750000000000048      53.899999999999999      50.050000000000004
    60   1       7.700000000000002      51.975000000000001      50.050000000000004
    61   1       7.700000000000002      53.899999999999999      48.125000000000007
    62   1      5.7750000000000048      51.975000000000001      51.975000000000001
    63   1      5.7750000000000048      53.899999999999999      53.899999999999999
    64   1       7.700000000000002      51.975000000000001      53.899999999999999
    65   1       7.700000000000002      53.899999999999999      51.975000000000001
    66   1      5.7750000000000048      51.975000000000001      55.825000000000003
    67   1      5.7750000000000048      53.899999999999999      57.749999999999993
    68   1       7.700000000000002      51.975000000000001      57.749999999999993
    69   1       7.700000000000002      53.899999999999999      55.825000000000003
    70   1      5.7750000000000048      51.975000000000001      59.675000000000004
    71   1      5.7750000000000048      53.899999999999999      61.600000000000009
    72   1       7.700000000000002      51.975000000000001      61.600000000000009
    73   1       7.700000000000002      53.899999999999999      59.675000000000004
    74   1      5.7750000000000048      51.975000000000001      63.525000000000006
    75   1      5.7750000000000048      53.899999999999999      65.450000000000003
    76   1       7.700000000000002      51.975000000000001      65.450000000000003
    77   1       7.700000000000002      53.899999999999999      63.525000000000006
    78   1       7.700000000000002      53.899999999999999                  67.375
    79   1       7.700000000000002      55.825000000000003      42.350000000000001
    80   1      5.7750000000000048      55.825000000000003      44.275000000000006
    81   1      5.7750000000000048      57.749999999999993      46.200000000000003
    82   1       7.700000000000002      55.825000000000003      46.200000000000003
    83   1       7.700000000000002      57.749999999999993      44.275000000000006
    84   1      5.7750000000000048      55.825000000000003      48.125000000000007
    85   1      5.7750000000000048      57.749999999999993      50.050000000000004
    86   1       7.700000000000002      55.825000000000003      50.050000000000004
    87   1       7.700000000000002      57.749999999999993      48.125000000000007
    88   1      5.7750000000000048      55.825000000000003      51.975000000000001
    89   1      5.7750000000000048      57.749999999999993      53.899999999999999
    90   1       7.700000000000002      55.825000000000003      53.899999999999999
    91   1       7.700000000000002      57.749999999999993      51.975000000000001
    92   1      5.7750000000000048      55.825000000000003      55.825000000000003
    93   1      5.7750000000000048      57.749999999999993      57.749999999999993
    94   1       7.700000000000002      55.825000000000003      57.749999999999993
    95   1       7.700000000000002      57.749999999999993      55.825000000000003
    96   1      5.7750000000000048      55.825000000000003      59.675000000000004
    97   1      5.7750000000000048      57.749999999999993      61.600000000000009
    98   1       7.700000000000002      55.825000000000003      61.600000000000009
    99   1       7.700000000000002      57.749999999999993      59.675000000000004
   100   1      5.7750000000000048      55.825000000000003      63.525000000000006
   101   1      5.7750000000000048      57.749999999999993      65.450000000000003
   102   1       7.700000000000002      55.825000000000003      65.450000000000003
   103   1       7.700000000000002      57.749999999999993      63.525000000000006
   104   1      5.7750000000000048      55.825000000000003                  67.375
   105   1       7.700000000000002      55.825000000000003      69.299999999999997
   106   1       7.700000000000002      57.749999999999993                  67.375
   107   1       7.700000000000002      59.675000000000004      46.200000000000003
   108   1      5.7750000000000048      59.675000000000004      48.125000000000007
   109   1      5.7750000000000048      61.600000000000009      50.050000000000004
   110   1       7.700000000000002      59.675000000000004      50.050000000000004
   111   1       7.700000000000002      61.600000000000009      48.125000000000007
   112   1      5.7750000000000048      59.675000000000004      51.975000000000001
   113   1      5.7750000000000048      61.600000000000009      53.899999999999999
   114   1       7.700000000000002      59.675000000000004      53.899999999999999
   115   1       7.700000000000002      61.600000000000009      51.975000000000001
   116   1      5.7750000000000048      59.675000000000004      55.825000000000003
   117   1      5.7750000000000048      61.600000000000009      57.749999999999993
   118   1       7.700000000000002      59.675000000000004      57.749999999999993
   119   1       7.700000000000002      61.600000000000009      55.825000000000003
   120   1      5.7750000000000048      59.675000000000004      59.675000000000004
   121   1      5.7750000000000048      61.600000000000009      61.600000000000009
   122   1       7.700000000000002      59.675000000000004      61.600000000000009
   123   1       7.700000000000002      61.600000000000009      59.675000000000004
   124   1      5.7750000000000048      59.675000000000004      63.525000000000006
   125   1       7.700000000000002      59.675000000000004      65.450000000000003
   126   1       7.700000000000002      61.600000000000009      63.525000000000006
   127   1       7.700000000000002      63.525000000000006      50.050000000000004
   128   1      5.7750000000000048      63.525000000000006      51.975000000000001
   129   1      5.7750000000000048      65.450000000000003      53.899999999999999
   130   1       7.700000000000002      63.525000000000006      53.899999999999999
   131   1       7.700000000000002      65.450000000000003      51.975000000000001
   132   1      5.7750000000000048      63.525000000000006      55.825000000000003
   133   1      5.7750000000000048      65.450000000000003      57.749999999999993
   134   1       7.700000000000002      63.525000000000006      57.749999999999993
   135   1       7.700000000000002      65.450000000000003      55.825000000000003
   136   1      5.7750000000000048      63.525000000000006      59.675000000000004
   137   1       7.700000000000002      63.525000000000006      61.600000000000009
   138   1       7.700000000000002      65.450000000000003      59.675000000000004
   139   1       7.700000000000002                  67.375      53.899999999999999
   140   1      5.7750000000000048                  67.375      55.825000000000003
   141   1       7.700000000000002                  67.375      57.749999999999993
   142   1       7.700000000000002      69.299999999999997      55.825000000000003
   143   1      11.550000000000004      34.649999999999999      55.825000000000003
   144   1      11.550000000000004      36.575000000000003      53.899999999999999
   145   1      11.550000000000004                    38.5      51.975000000000001
   146   1      11.550000000000004      36.575000000000003      57.749999999999993
   147   1      11.550000000000004                    38.5      55.825000000000003
   148   1      11.550000000000004                    38.5      59.675000000000004
   149   1      11.550000000000004      40.425000000000004      50.050000000000004
   150   1      11.550000000000004      42.350000000000001      48.125000000000007
   151   1                   9.625      42.350000000000001      53.899999999999999
   152   1      11.550000000000004      40.425000000000004      53.899999999999999
   153   1      11.550000000000004      42.350000000000001      51.975000000000001
   154   1                   9.625      40.425000000000004      55.825000000000003
   155   1                   9.625      42.350000000000001      57.749999999999993
   156   1      11.550000000000004      40.425000000000004      57.749999999999993
   157   1      11.550000000000004      42.350000000000001      55.825000000000003
   158   1      11.550000000000004      40.425000000000004      61.600000000000009
   159   1      11.550000000000004      42.350000000000001      59.675000000000004
   160   1      11.550000000000004      42.350000000000001      63.525000000000006
   161   1      11.550000000000004      44.275000000000006      46.200000000000003
   162   1      11.550000000000004      46.200000000000003      44.275000000000006
   163   1                   9.625      46.200000000000003      50.050000000000004
   164   1      11.550000000000004      44.275000000000006      50.050000000000004
   165   1      11.550000000000004      46.200000000000003      48.125000000000007
   166   1                   9.625      44.275000000000006      51.975000000000001
   167   1                   9.625      46.200000000000003      53.899999999999999
   168   1      11.550000000000004      44.275000000000006      53.899999999999999
   169   1      11.550000000000004      46.200000000000003      51.975000000000001
   170   1                   9.625      44.275000000000006      55.825000000000003
   171   1                   9.625      46.200000000000003      57.749999999999993
   172   1      11.550000000000004      44.275000000000006      57.749999999999993
   173   1      11.550000000000004      46.200000000000003      55.825000000000003
   174   1                   9.625      44.275000000000006      59.675000000000004
   175   1                   9.625      46.200000000000003      61.600000000000009
   176   1      11.550000000000004      44.275000000000006      61.600000000000009
   177   1      11.550000000000004      46.200000000000003      59.675000000000004
   178   1      11.550000000000004      44.275000000000006      65.450000000000003
   179   1      11.550000000000004      46.200000000000003      63.525000000000006
   180   1      11.550000000000004      46.200000000000003                  67.375
   181   1      11.550000000000004      48.125000000000007      42.350000000000001
   182   1      11.550000000000004      50.050000000000004      40.425000000000004
   183   1                   9.625      50.050000000000004      46.200000000000003
   184   1      11.550000000000004      48.125000000000007      46.200000000000003
   185   1      11.550000000000004      50.050000000000004      44.275000000000006
   186   1                   9.625      48.125000000000007      48.125000000000007
   187   1                   9.625      50.050000000000004      50.050000000000004
   188   1      11.550000000000004      48.125000000000007      50.050000000000004
   189   1      11.550000000000004      50.050000000000004      48.125000000000007
   190   1                   9.625      48.125000000000007      51.975000000000001
   191   1                   9.625      50.050000000000004      53.899999999999999
   192   1      11.550000000000004      48.125000000000007      53.899999999999999
   193   1      11.550000000000004      50.050000000000004      51.975000000000001
   194   1                   9.625      48.125000000000007      55.825000000000003
   195   1                   9.625      50.050000000000004      57.749999999999993
   196   1      11.550000000000004      48.125000000000007      57.749999999999993
   197   1      11.550000000000004      50.050000000000004      55.825000000000003
   198   1                   9.625      48.125000000000007      59.675000000000004
   199   1                   9.625      50.050000000000004      61.600000000000009
   200   1      11.550000000000004      48.125000000000007      61.600000000000009
   201   1      11.550000000000004      50.050000000000004      59.675000000000004
   202   1                   9.625      48.125000000000007      63.525000000000006
   203   1                   9.625      50.050000000000004      65.450000000000003
   204   1      11.550000000000004      48.125000000000007      65.450000000000003
   205   1      11.550000000000004      50.050000000000004      63.525000000000006
   206   1      11.550000000000004      48.125000000000007      69.299999999999997
   207   1      11.550000000000004      50.050000000000004                  67.375
   208   1      11.550000000000004      50.050000000000004      71.225000000000009
   209   1      11.550000000000004      51.975000000000001                    38.5
   210   1      11.550000000000004      53.899999999999999      36.575000000000003
   211   1                   9.625      53.899999999999999      42.350000000000001
   212   1      11.550000000000004      51.975000000000001      42.350000000000001
   213   1      11.550000000000004      53.899999999999999      40.425000000000004
   214   1                   9.625      51.975000000000001      44.275000000000006
   215   1                   9.625      53.899999999999999      46.200000000000003
   216   1      11.550000000000004      51.975000000000001      46.200000000000003
   217   1      11.550000000000004      53.899999999999999      44.275000000000006
   218   1                   9.625      51.975000000000001      48.125000000000007
   219   1                   9.625      53.899999999999999      50.050000000000004
   220   1      11.550000000000004      51.975000000000001      50.050000000000004
   221   1      11.550000000000004      53.899999999999999      48.125000000000007
   222   1                   9.625      51.975000000000001      51.975000000000001
   223   1                   9.625      53.899999999999999      53.899999999999999
   224   1      11.550000000000004      51.975000000000001      53.899999999999999
   225   1      11.550000000000004      53.899999999999999      51.975000000000001
   226   1                   9.625      51.975000000000001      55.825000000000003
   227   1                   9.625      53.899999999999999      57.749999999999993
   228   1      11.550000000000004      51.975000000000001      57.749999999999993
   229   1      11.550000000000004      53.899999999999999      55.825000000000003
   230   1                   9.625      51.975000000000001      59.675000000000004
   231   1                   9.625      53.899999999999999      61.600000000000009
   232   1      11.550000000000004      51.975000000000001      61.600000000000009
   233   1      11.550000000000004      53.899999999999999      59.675000000000004
   234   1                   9.625      51.975000000000001      63.525000000000006
   235   1                   9.625      53.899999999999999      65.450000000000003
   236   1      11.550000000000004      51.975000000000001      65.450000000000003
   237   1      11.550000000000004      53.899999999999999      63.525000000000006
   238   1                   9.625      51.975000000000001                  67.375
   239   1                   9.625      53.899999999999999      69.299999999999997
   240   1      11.550000000000004      51.975000000000001      69.299999999999997
   241   1      11.550000000000004      53.899999999999999                  67.375
   242   1      11.550000000000004      51.975000000000001      73.150000000000006
   243   1      11.550000000000004      53.899999999999999      71.225000000000009
   244   1      11.550000000000004      53.899999999999999      75.074999999999989
   245   1      11.550000000000004      55.825000000000003      34.649999999999999
   246   1      11.550000000000004      55.825000000000003                    38.5
   247   1      11.550000000000004      57.749999999999993      36.575000000000003
   248   1                   9.625      55.825000000000003      40.425000000000004
   249   1                   9.625      57.749999999999993      42.350000000000001
   250   1      11.550000000000004      55.825000000000003      42.350000000000001
   251   1      11.550000000000004      57.749999999999993      40.425000000000004
   252   1                   9.625      55.825000000000003      44.275000000000006
   253   1                   9.625      57.749999999999993      46.200000000000003
   254   1      11.550000000000004      55.825000000000003      46.200000000000003
   255   1      11.550000000000004      57.749999999999993      44.275000000000006
   256   1                   9.625      55.825000000000003      48.125000000000007
   257   1                   9.625      57.749999999999993      50.050000000000004
   258   1      11.550000000000004      55.825000000000003      50.050000000000004
   259   1      11.550000000000004      57.749999999999993      48.125000000000007
   260   1                   9.625      55.825000000000003      51.975000000000001
   261   1                   9.625      57.749999999999993      53.899999999999999
   262   1      11.550000000000004      55.825000000000003      53.899999999999999
   263   1      11.550000000000004      57.749999999999993      51.975000000000001
   264   1                   9.625      55.825000000000003      55.825000000000003
   265   1                   9.625      57.749999999999993      57.749999999999993
   266   1      11.550000000000004      55.825000000000003      57.749999999999993
   267   1      11.550000000000004      57.749999999999993      55.825000000000003
   268   1                   9.625      55.825000000000003      59.675000000000004
   269   1                   9.625      57.749999999999993      61.600000000000009
   270   1      11.550000000000004      55.825000000000003      61.600000000000009
   271   1      11.550000000000004      57.749999999999993      59.675000000000004
   272   1                   9.625      55.825000000000003      63.525000000000006
   273   1                   9.625      57.749999999999993      65.450000000000003
   274   1      11.550000000000004      55.825000000000003      65.450000000000003
   275   1      11.550000000000004      57.749999999999993      63.525000000000006
   276   1                   9.625      55.825000000000003                  67.375
   277   1                   9.625      57.749999999999993      69.299999999999997
   278   1      11.550000000000004      55.825000000000003      69.299999999999997
   279   1      11.550000000000004      57.749999999999993                  67.375
   280   1                   9.625      55.825000000000003      71.225000000000009
   281   1      11.550000000000004      55.825000000000003      73.150000000000006
   282   1      11.550000000000004      57.749999999999993      71.225000000000009
   283   1      11.550000000000004      55.825000000000003                      77
   284   1      11.550000000000004      57.749999999999993      75.074999999999989
   285   1      11.550000000000004      59.675000000000004                    38.5
   286   1      11.550000000000004      59.675000000000004      42.350000000000001
   287   1      11.550000000000004      61.600000000000009      40.425000000000004
   288   1                   9.625      59.675000000000004      44.275000000000006
   289   1                   9.625      61.600000000000009      46.200000000000003
   290   1      11.550000000000004      59.675000000000004      46.200000000000003
   291   1      11.550000000000004      61.600000000000009      44.275000000000006
   292   1                   9.625      59.675000000000004      48.125000000000007
   293   1                   9.625      61.600000000000009      50.050000000000004
   294   1      11.550000000000004      59.675000000000004      50.050000000000004
   295   1      11.550000000000004      61.600000000000009      48.125000000000007
   296   1                   9.625      59.675000000000004      51.975000000000001
   297   1                   9.625      61.600000000000009      53.899999999999999
   298   1      11.550000000000004      59.675000000000004      53.899999999999999
   299   1      11.550000000000004      61.600000000000009      51.975000000000001
   300   1                   9.625      59.675000000000004      55.825000000000003
   301   1                   9.625      61.600000000000009      57.749999999999993
   302   1      11.550000000000004      59.675000000000004      57.749999999999993
   303   1      11.550000000000004      61.600000000000009      55.825000000000003
   304   1                   9.625      59.675000000000004      59.675000000000004
   305   1                   9.625      61.600000000000009      61.600000000000009
   306   1      11.550000000000004      59.675000000000004      61.600000000000009
   307   1      11.550000000000004      61.600000000000009      59.675000000000004
   308   1                   9.625      59.675000000000004      63.525000000000006
   309   1                   9.625      61.600000000000009      65.450000000000003
   310   1      11.550000000000004      59.675000000000004      65.450000000000003
   311   1      11.550000000000004      61.600000000000009      63.525000000000006
   312   1                   9.625      59.675000000000004                  67.375
   313   1      11.550000000000004      59.675000000000004      69.299999999999997
   314   1      11.550000000000004      61.600000000000009                  67.375
   315   1      11.550000000000004      59.675000000000004      73.150000000000006
   316   1      11.550000000000004      61.600000000000009      71.225000000000009
   317   1      11.550000000000004      63.525000000000006      42.350000000000001
   318   1      11.550000000000004      63.525000000000006      46.200000000000003
   319   1      11.550000000000004      65.450000000000003      44.275000000000006
   320   1                   9.625      63.525000000000006      48.125000000000007
   321   1                   9.625      65.450000000000003      50.050000000000004
   322   1      11.550000000000004      63.525000000000006      50.050000000000004
   323   1      11.550000000000004      65.450000000000003      48.125000000000007
   324   1                   9.625      63.525000000000006      51.975000000000001
   325   1                   9.625      65.450000000000003      53.899999999999999
   326   1      11.550000000000004      63.525000000000006      53.899999999999999
   327   1      11.550000000000004      65.450000000000003      51.975000000000001
   328   1                   9.625      63.525000000000006      55.825000000000003
   329   1                   9.625      65.450000000000003      57.749999999999993
   330   1      11.550000000000004      63.525000000000006      57.749999999999993
   331   1      11.550000000000004      65.450000000000003      55.825000000000003
   332   1                   9.625      63.525000000000006      59.675000000000004
   333   1                   9.625      65.450000000000003      61.600000000000009
   334   1      11.550000000000004      63.525000000000006      61.600000000000009
   335   1      11.550000000000004      65.450000000000003      59.675000000000004
   336   1                   9.625      63.525000000000006      63.525000000000006
   337   1      11.550000000000004      63.525000000000006      65.450000000000003
   338   1      11.550000000000004      65.450000000000003      63.525000000000006
   339   1      11.550000000000004      63.525000000000006      69.299999999999997
   340   1      11.550000000000004      65.450000000000003                  67.375
   341   1      11.550000000000004                  67.375      46.200000000000003
   342   1      11.550000000000004                  67.375      50.050000000000004
   343   1      11.550000000000004      69.299999999999997      48.125000000000007
   344   1                   9.625                  67.375      51.975000000000001
   345   1                   9.625      69.299999999999997      53.899999999999999
   346   1      11.550000000000004                  67.375      53.899999999999999
   347   1      11.550000000000004      69.299999999999997      51.975000000000001
   348   1                   9.625                  67.375      55.825000000000003
   349   1                   9.625      69.299999999999997      57.749999999999993
   350   1      11.550000000000004                  67.375      57.749999999999993
   351   1      11.550000000000004      69.299999999999997      55.825000000000003
   352   1                   9.625                  67.375      59.675000000000004
   353   1      11.550000000000004                  67.375      61.600000000000009
   354   1      11.550000000000004      69.299999999999997      59.675000000000004
   355   1      11.550000000000004                  67.375      65.450000000000003
   356   1      11.550000000000004      69.299999999999997      63.525000000000006
   357   1      11.550000000000004      71.225000000000009      50.050000000000004
   358   1      11.550000000000004      71.225000000000009      53.899999999999999