model_files/PdCu/PdCu_30000/PdCu_410/PdCu_410_fcc_29755_temp.data (written by ASE) 

29755 	 atoms 
2  atom types
0.0                      85  xlo xhi
0.0                      85  ylo yhi
0.0                      85  zlo zhi


Atoms 

     1   1      1.8875000000000099       30.20000000000001      32.087500000000013
     2   1      1.8875000000000099      32.087500000000013       30.20000000000001
     3   1      1.8875000000000099       30.20000000000001      35.862500000000011
     4   1      1.8875000000000099      32.087500000000013      33.975000000000009
     5   1      1.8875000000000099       30.20000000000001       39.63750000000001
     6   1      1.8875000000000099      32.087500000000013      37.750000000000007
     7   1      1.8875000000000099       30.20000000000001      43.412500000000009
     8   1      1.8875000000000099      32.087500000000013      41.525000000000006
     9   1      1.8875000000000099       30.20000000000001                 47.1875
    10   1      1.8875000000000099      32.087500000000013      45.300000000000004
    11   1      1.8875000000000099       30.20000000000001      50.962500000000013
    12   1      1.8875000000000099      32.087500000000013       49.07500000000001
    13   1      1.8875000000000099      32.087500000000013      52.850000000000001
    14   1      1.8875000000000099      33.975000000000009      32.087500000000013
    15   1      1.8875000000000099      35.862500000000011       30.20000000000001
    16   1      1.8875000000000099      33.975000000000009      35.862500000000011
    17   1      1.8875000000000099      35.862500000000011      33.975000000000009
    18   1      1.8875000000000099      33.975000000000009       39.63750000000001
    19   1      1.8875000000000099      35.862500000000011      37.750000000000007
    20   1      1.8875000000000099      33.975000000000009      43.412500000000009
    21   1      1.8875000000000099      35.862500000000011      41.525000000000006
    22   1      1.8875000000000099      33.975000000000009                 47.1875
    23   1      1.8875000000000099      35.862500000000011      45.300000000000004
    24   1      1.8875000000000099      33.975000000000009      50.962500000000013
    25   1      1.8875000000000099      35.862500000000011       49.07500000000001
    26   1      1.8875000000000099      35.862500000000011      52.850000000000001
    27   1      1.8875000000000099      37.750000000000007      32.087500000000013
    28   1      1.8875000000000099       39.63750000000001       30.20000000000001
    29   1      1.8875000000000099      37.750000000000007      35.862500000000011
    30   1      1.8875000000000099       39.63750000000001      33.975000000000009
    31   1  7.1054273576010019e-15      37.750000000000007      37.750000000000007
    32   1  7.1054273576010019e-15       39.63750000000001       39.63750000000001
    33   1      1.8875000000000099      37.750000000000007       39.63750000000001
    34   1      1.8875000000000099       39.63750000000001      37.750000000000007
    35   1  7.1054273576010019e-15      37.750000000000007      41.525000000000006
    36   1  7.1054273576010019e-15       39.63750000000001      43.412500000000009
    37   1      1.8875000000000099      37.750000000000007      43.412500000000009
    38   1      1.8875000000000099       39.63750000000001      41.525000000000006
    39   1  7.1054273576010019e-15      37.750000000000007      45.300000000000004
    40   1      1.8875000000000099      37.750000000000007                 47.1875
    41   1      1.8875000000000099       39.63750000000001      45.300000000000004
    42   1      1.8875000000000099      37.750000000000007      50.962500000000013
    43   1      1.8875000000000099       39.63750000000001       49.07500000000001
    44   1      1.8875000000000099       39.63750000000001      52.850000000000001
    45   1      1.8875000000000099      41.525000000000006      32.087500000000013
    46   1      1.8875000000000099      43.412500000000009       30.20000000000001
    47   1      1.8875000000000099      41.525000000000006      35.862500000000011
    48   1      1.8875000000000099      43.412500000000009      33.975000000000009
    49   1  7.1054273576010019e-15      41.525000000000006      37.750000000000007
    50   1  7.1054273576010019e-15      43.412500000000009       39.63750000000001
    51   1      1.8875000000000099      41.525000000000006       39.63750000000001
    52   1      1.8875000000000099      43.412500000000009      37.750000000000007
    53   1  7.1054273576010019e-15      41.525000000000006      41.525000000000006
    54   1  7.1054273576010019e-15      43.412500000000009      43.412500000000009
    55   1      1.8875000000000099      41.525000000000006      43.412500000000009
    56   1      1.8875000000000099      43.412500000000009      41.525000000000006
    57   1  7.1054273576010019e-15      41.525000000000006      45.300000000000004
    58   1      1.8875000000000099      41.525000000000006                 47.1875
    59   1      1.8875000000000099      43.412500000000009      45.300000000000004
    60   1      1.8875000000000099      41.525000000000006      50.962500000000013
    61   1      1.8875000000000099      43.412500000000009       49.07500000000001
    62   1      1.8875000000000099      43.412500000000009      52.850000000000001
    63   1      1.8875000000000099      45.300000000000004      32.087500000000013
    64   1      1.8875000000000099                 47.1875       30.20000000000001
    65   1      1.8875000000000099      45.300000000000004      35.862500000000011
    66   1      1.8875000000000099                 47.1875      33.975000000000009
    67   1  7.1054273576010019e-15      45.300000000000004      37.750000000000007
    68   1      1.8875000000000099      45.300000000000004       39.63750000000001
    69   1      1.8875000000000099                 47.1875      37.750000000000007
    70   1  7.1054273576010019e-15      45.300000000000004      41.525000000000006
    71   1      1.8875000000000099      45.300000000000004      43.412500000000009
    72   1      1.8875000000000099                 47.1875      41.525000000000006
    73   1  7.1054273576010019e-15      45.300000000000004      45.300000000000004
    74   1      1.8875000000000099      45.300000000000004                 47.1875
    75   1      1.8875000000000099                 47.1875      45.300000000000004
    76   1      1.8875000000000099      45.300000000000004      50.962500000000013
    77   1      1.8875000000000099                 47.1875       49.07500000000001
    78   1      1.8875000000000099                 47.1875      52.850000000000001
    79   1      1.8875000000000099       49.07500000000001      32.087500000000013
    80   1      1.8875000000000099      50.962500000000013       30.20000000000001
    81   1      1.8875000000000099       49.07500000000001      35.862500000000011
    82   1      1.8875000000000099      50.962500000000013      33.975000000000009
    83   1      1.8875000000000099       49.07500000000001       39.63750000000001
    84   1      1.8875000000000099      50.962500000000013      37.750000000000007
    85   1      1.8875000000000099       49.07500000000001      43.412500000000009
    86   1      1.8875000000000099      50.962500000000013      41.525000000000006
    87   1      1.8875000000000099       49.07500000000001                 47.1875
    88   1      1.8875000000000099      50.962500000000013      45.300000000000004
    89   1      1.8875000000000099       49.07500000000001      50.962500000000013
    90   1      1.8875000000000099      50.962500000000013       49.07500000000001
    91   1      1.8875000000000099      50.962500000000013      52.850000000000001
    92   1      1.8875000000000099      52.850000000000001      32.087500000000013
    93   1      1.8875000000000099      52.850000000000001      35.862500000000011
    94   1      1.8875000000000099      52.850000000000001       39.63750000000001
    95   1      1.8875000000000099      52.850000000000001      43.412500000000009
    96   1      1.8875000000000099      52.850000000000001                 47.1875
    97   1      1.8875000000000099      52.850000000000001      50.962500000000013
    98   1      5.6625000000000085      15.100000000000009      16.987500000000008
    99   1      5.6625000000000085      16.987500000000008      15.100000000000009
   100   1      5.6625000000000085      15.100000000000009      20.762500000000006
   101   1      5.6625000000000085      16.987500000000008      18.875000000000007
   102   1      5.6625000000000085      15.100000000000009      24.537500000000005
   103   1      5.6625000000000085      16.987500000000008      22.650000000000009
   104   1      5.6625000000000085      15.100000000000009      28.312500000000007
   105   1      5.6625000000000085      16.987500000000008      26.425000000000008
   106   1      5.6625000000000085      15.100000000000009      32.087500000000013
   107   1      5.6625000000000085      16.987500000000008       30.20000000000001
   108   1      5.6625000000000085      15.100000000000009      35.862500000000011
   109   1      5.6625000000000085      16.987500000000008      33.975000000000009
   110   1      5.6625000000000085      15.100000000000009       39.63750000000001
   111   1      5.6625000000000085      16.987500000000008      37.750000000000007
   112   1      5.6625000000000085      15.100000000000009      43.412500000000009
   113   1      5.6625000000000085      16.987500000000008      41.525000000000006
   114   1      5.6625000000000085      15.100000000000009                 47.1875
   115   1      5.6625000000000085      16.987500000000008      45.300000000000004
   116   1      5.6625000000000085      15.100000000000009      50.962500000000013
   117   1      5.6625000000000085      16.987500000000008       49.07500000000001
   118   1      5.6625000000000085      15.100000000000009      54.737500000000018
   119   1      5.6625000000000085      16.987500000000008      52.850000000000001
   120   1      5.6625000000000085      15.100000000000009       58.51250000000001
   121   1      5.6625000000000085      16.987500000000008      56.625000000000007
   122   1      5.6625000000000085      15.100000000000009      62.287500000000009
   123   1      5.6625000000000085      16.987500000000008      60.400000000000006
   124   1      5.6625000000000085      15.100000000000009      66.062500000000014
   125   1      5.6625000000000085      16.987500000000008      64.175000000000011
   126   1      5.6625000000000085      16.987500000000008      67.950000000000003
   127   1      5.6625000000000085      18.875000000000007      16.987500000000008
   128   1      5.6625000000000085      20.762500000000006      15.100000000000009
   129   1      5.6625000000000085      18.875000000000007      20.762500000000006
   130   1      5.6625000000000085      20.762500000000006      18.875000000000007
   131   1      5.6625000000000085      18.875000000000007      24.537500000000005
   132   1      5.6625000000000085      20.762500000000006      22.650000000000009
   133   1      5.6625000000000085      18.875000000000007      28.312500000000007
   134   1      5.6625000000000085      20.762500000000006      26.425000000000008
   135   1      5.6625000000000085      18.875000000000007      32.087500000000013
   136   1      5.6625000000000085      20.762500000000006       30.20000000000001
   137   1      5.6625000000000085      18.875000000000007      35.862500000000011
   138   1      5.6625000000000085      20.762500000000006      33.975000000000009
   139   1      5.6625000000000085      18.875000000000007       39.63750000000001
   140   1      5.6625000000000085      20.762500000000006      37.750000000000007
   141   1      5.6625000000000085      18.875000000000007      43.412500000000009
   142   1      5.6625000000000085      20.762500000000006      41.525000000000006
   143   1      5.6625000000000085      18.875000000000007                 47.1875
   144   1      5.6625000000000085      20.762500000000006      45.300000000000004
   145   1      5.6625000000000085      18.875000000000007      50.962500000000013
   146   1      5.6625000000000085      20.762500000000006       49.07500000000001
   147   1      5.6625000000000085      18.875000000000007      54.737500000000018
   148   1      5.6625000000000085      20.762500000000006      52.850000000000001
   149   1      5.6625000000000085      18.875000000000007       58.51250000000001
   150   1      5.6625000000000085      20.762500000000006      56.625000000000007
   151   1      5.6625000000000085      18.875000000000007      62.287500000000009
   152   1      5.6625000000000085      20.762500000000006      60.400000000000006
   153   1      5.6625000000000085      18.875000000000007      66.062500000000014
   154   1      5.6625000000000085      20.762500000000006      64.175000000000011
   155   1      5.6625000000000085      20.762500000000006      67.950000000000003
   156   1      5.6625000000000085      22.650000000000009      16.987500000000008
   157   1      5.6625000000000085      24.537500000000005      15.100000000000009
   158   1      5.6625000000000085      22.650000000000009      20.762500000000006
   159   1      5.6625000000000085      24.537500000000005      18.875000000000007
   160   1      3.7750000000000057      22.650000000000009      22.650000000000009
   161   1      3.7750000000000057      24.537500000000005      24.537500000000005
   162   1      5.6625000000000085      22.650000000000009      24.537500000000005
   163   1      5.6625000000000085      24.537500000000005      22.650000000000009
   164   1      3.7750000000000057      22.650000000000009      26.425000000000008
   165   1      3.7750000000000057      24.537500000000005      28.312500000000007
   166   1      5.6625000000000085      22.650000000000009      28.312500000000007
   167   1      5.6625000000000085      24.537500000000005      26.425000000000008
   168   1      3.7750000000000057      22.650000000000009       30.20000000000001
   169   1      3.7750000000000057      24.537500000000005      32.087500000000013
   170   1      5.6625000000000085      22.650000000000009      32.087500000000013
   171   1      5.6625000000000085      24.537500000000005       30.20000000000001
   172   1      3.7750000000000057      22.650000000000009      33.975000000000009
   173   1      3.7750000000000057      24.537500000000005      35.862500000000011
   174   1      5.6625000000000085      22.650000000000009      35.862500000000011
   175   1      5.6625000000000085      24.537500000000005      33.975000000000009
   176   1      3.7750000000000057      22.650000000000009      37.750000000000007
   177   1      3.7750000000000057      24.537500000000005       39.63750000000001
   178   1      5.6625000000000085      22.650000000000009       39.63750000000001
   179   1      5.6625000000000085      24.537500000000005      37.750000000000007
   180   1      3.7750000000000057      22.650000000000009      41.525000000000006
   181   1      3.7750000000000057      24.537500000000005      43.412500000000009
   182   1      5.6625000000000085      22.650000000000009      43.412500000000009
   183   1      5.6625000000000085      24.537500000000005      41.525000000000006
   184   1      3.7750000000000057      22.650000000000009      45.300000000000004
   185   1      3.7750000000000057      24.537500000000005                 47.1875
   186   1      5.6625000000000085      22.650000000000009                 47.1875
   187   1      5.6625000000000085      24.537500000000005      45.300000000000004
   188   1      3.7750000000000057      22.650000000000009       49.07500000000001
   189   1      3.7750000000000057      24.537500000000005      50.962500000000013
   190   1      5.6625000000000085      22.650000000000009      50.962500000000013
   191   1      5.6625000000000085      24.537500000000005       49.07500000000001
   192   1      3.7750000000000057      22.650000000000009      52.850000000000001
   193   1      3.7750000000000057      24.537500000000005      54.737500000000018
   194   1      5.6625000000000085      22.650000000000009      54.737500000000018
   195   1      5.6625000000000085      24.537500000000005      52.850000000000001
   196   1      3.7750000000000057      22.650000000000009      56.625000000000007
   197   1      3.7750000000000057      24.537500000000005       58.51250000000001
   198   1      5.6625000000000085      22.650000000000009       58.51250000000001
   199   1      5.6625000000000085      24.537500000000005      56.625000000000007
   200   1      3.7750000000000057      22.650000000000009      60.400000000000006
   201   1      5.6625000000000085      22.650000000000009      62.287500000000009
   202   1      5.6625000000000085      24.537500000000005      60.400000000000006
   203   1      5.6625000000000085      22.650000000000009      66.062500000000014
   204   1      5.6625000000000085      24.537500000000005      64.175000000000011
   205   1      5.6625000000000085      24.537500000000005      67.950000000000003
   206   1      5.6625000000000085      26.425000000000008      16.987500000000008
   207   1      5.6625000000000085      28.312500000000007      15.100000000000009
   208   1      5.6625000000000085      26.425000000000008      20.762500000000006
   209   1      5.6625000000000085      28.312500000000007      18.875000000000007
   210   1      3.7750000000000057      26.425000000000008      22.650000000000009
   211   1      3.7750000000000057      28.312500000000007      24.537500000000005
   212   1      5.6625000000000085      26.425000000000008      24.537500000000005
   213   1      5.6625000000000085      28.312500000000007      22.650000000000009
   214   1      3.7750000000000057      26.425000000000008      26.425000000000008
   215   1      3.7750000000000057      28.312500000000007      28.312500000000007
   216   1      5.6625000000000085      26.425000000000008      28.312500000000007
   217   1      5.6625000000000085      28.312500000000007      26.425000000000008
   218   1      3.7750000000000057      26.425000000000008       30.20000000000001
   219   1      3.7750000000000057      28.312500000000007      32.087500000000013
   220   1      5.6625000000000085      26.425000000000008      32.087500000000013
   221   1      5.6625000000000085      28.312500000000007       30.20000000000001
   222   1      3.7750000000000057      26.425000000000008      33.975000000000009
   223   1      3.7750000000000057      28.312500000000007      35.862500000000011
   224   1      5.6625000000000085      26.425000000000008      35.862500000000011
   225   1      5.6625000000000085      28.312500000000007      33.975000000000009
   226   1      3.7750000000000057      26.425000000000008      37.750000000000007
   227   1      3.7750000000000057      28.312500000000007       39.63750000000001
   228   1      5.6625000000000085      26.425000000000008       39.63750000000001
   229   1      5.6625000000000085      28.312500000000007      37.750000000000007
   230   1      3.7750000000000057      26.425000000000008      41.525000000000006
   231   1      3.7750000000000057      28.312500000000007      43.412500000000009
   232   1      5.6625000000000085      26.425000000000008      43.412500000000009
   233   1      5.6625000000000085      28.312500000000007      41.525000000000006
   234   1      3.7750000000000057      26.425000000000008      45.300000000000004
   235   1      3.7750000000000057      28.312500000000007                 47.1875
   236   1      5.6625000000000085      26.425000000000008                 47.1875
   237   1      5.6625000000000085      28.312500000000007      45.300000000000004
   238   1      3.7750000000000057      26.425000000000008       49.07500000000001
   239   1      3.7750000000000057      28.312500000000007      50.962500000000013
   240   1      5.6625000000000085      26.425000000000008      50.962500000000013
   241   1      5.6625000000000085      28.312500000000007       49.07500000000001
   242   1      3.7750000000000057      26.425000000000008      52.850000000000001
   243   1      3.7750000000000057      28.312500000000007      54.737500000000018
   244   1      5.6625000000000085      26.425000000000008      54.737500000000018
   245   1      5.6625000000000085      28.312500000000007      52.850000000000001
   246   1      3.7750000000000057      26.425000000000008      56.625000000000007
   247   1      3.7750000000000057      28.312500000000007       58.51250000000001
   248   1      5.6625000000000085      26.425000000000008       58.51250000000001
   249   1      5.6625000000000085      28.312500000000007      56.625000000000007
   250   1      3.7750000000000057      26.425000000000008      60.400000000000006
   251   1      5.6625000000000085      26.425000000000008      62.287500000000009
   252   1      5.6625000000000085      28.312500000000007      60.400000000000006
   253   1      5.6625000000000085      26.425000000000008      66.062500000000014
   254   1      5.6625000000000085      28.312500000000007      64.175000000000011
   255   1      5.6625000000000085      28.312500000000007      67.950000000000003
   256   1      5.6625000000000085       30.20000000000001      16.987500000000008
   257   1      5.6625000000000085      32.087500000000013      15.100000000000009
   258   1      5.6625000000000085       30.20000000000001      20.762500000000006
   259   1      5.6625000000000085      32.087500000000013      18.875000000000007
   260   1      3.7750000000000057       30.20000000000001      22.650000000000009
   261   1      3.7750000000000057      32.087500000000013      24.537500000000005
   262   1      5.6625000000000085       30.20000000000001      24.537500000000005
   263   1      5.6625000000000085      32.087500000000013      22.650000000000009
   264   1      3.7750000000000057       30.20000000000001      26.425000000000008
   265   1      3.7750000000000057      32.087500000000013      28.312500000000007
   266   1      5.6625000000000085       30.20000000000001      28.312500000000007
   267   1      5.6625000000000085      32.087500000000013      26.425000000000008
   268   1      3.7750000000000057       30.20000000000001       30.20000000000001
   269   1      3.7750000000000057      32.087500000000013      32.087500000000013
   270   1      5.6625000000000085       30.20000000000001      32.087500000000013
   271   1      5.6625000000000085      32.087500000000013       30.20000000000001
   272   1      3.7750000000000057       30.20000000000001      33.975000000000009
   273   1      3.7750000000000057      32.087500000000013      35.862500000000011
   274   1      5.6625000000000085       30.20000000000001      35.862500000000011
   275   1      5.6625000000000085      32.087500000000013      33.975000000000009
   276   1      3.7750000000000057       30.20000000000001      37.750000000000007
   277   1      3.7750000000000057      32.087500000000013       39.63750000000001
   278   1      5.6625000000000085       30.20000000000001       39.63750000000001
   279   1      5.6625000000000085      32.087500000000013      37.750000000000007
   280   1      3.7750000000000057       30.20000000000001      41.525000000000006
   281   1      3.7750000000000057      32.087500000000013      43.412500000000009
   282   1      5.6625000000000085       30.20000000000001      43.412500000000009
   283   1      5.6625000000000085      32.087500000000013      41.525000000000006
   284   1      3.7750000000000057       30.20000000000001      45.300000000000004
   285   1      3.7750000000000057      32.087500000000013                 47.1875
   286   1      5.6625000000000085       30.20000000000001                 47.1875
   287   1      5.6625000000000085      32.087500000000013      45.300000000000004
   288   1      3.7750000000000057       30.20000000000001       49.07500000000001
   289   1      3.7750000000000057      32.087500000000013      50.962500000000013
   290   1      5.6625000000000085       30.20000000000001      50.962500000000013
   291   1      5.6625000000000085      32.087500000000013       49.07500000000001
   292   1      3.7750000000000057       30.20000000000001      52.850000000000001
   293   1      3.7750000000000057      32.087500000000013      54.737500000000018
   294   1      5.6625000000000085       30.20000000000001      54.737500000000018
   295   1      5.6625000000000085      32.087500000000013      52.850000000000001
   296   1      3.7750000000000057       30.20000000000001      56.625000000000007
   297   1      3.7750000000000057      32.087500000000013       58.51250000000001
   298   1      5.6625000000000085       30.20000000000001       58.51250000000001
   299   1      5.6625000000000085      32.087500000000013      56.625000000000007
   300   1      3.7750000000000057       30.20000000000001      60.400000000000006
   301   1      5.6625000000000085       30.20000000000001      62.287500000000009
   302   1      5.6625000000000085      32.087500000000013      60.400000000000006
   303   1      5.6625000000000085       30.20000000000001      66.062500000000014
   304   1      5.6625000000000085      32.087500000000013      64.175000000000011
   305   1      5.6625000000000085      32.087500000000013      67.950000000000003
   306   1      5.6625000000000085      33.975000000000009      16.987500000000008
   307   1      5.6625000000000085      35.862500000000011      15.100000000000009
   308   1      5.6625000000000085      33.975000000000009      20.762500000000006
   309   1      5.6625000000000085      35.862500000000011      18.875000000000007
   310   1      3.7750000000000057      33.975000000000009      22.650000000000009
   311   1      3.7750000000000057      35.862500000000011      24.537500000000005
   312   1      5.6625000000000085      33.975000000000009      24.537500000000005
   313   1      5.6625000000000085      35.862500000000011      22.650000000000009
   314   1      3.7750000000000057      33.975000000000009      26.425000000000008
   315   1      3.7750000000000057      35.862500000000011      28.312500000000007
   316   1      5.6625000000000085      33.975000000000009      28.312500000000007
   317   1      5.6625000000000085      35.862500000000011      26.425000000000008
   318   1      3.7750000000000057      33.975000000000009       30.20000000000001
   319   1      3.7750000000000057      35.862500000000011      32.087500000000013
   320   1      5.6625000000000085      33.975000000000009      32.087500000000013
   321   1      5.6625000000000085      35.862500000000011       30.20000000000001
   322   1      3.7750000000000057      33.975000000000009      33.975000000000009
   323   1      3.7750000000000057      35.862500000000011      35.862500000000011
   324   1      5.6625000000000085      33.975000000000009      35.862500000000011
   325   1      5.6625000000000085      35.862500000000011      33.975000000000009
   326   1      3.7750000000000057      33.975000000000009      37.750000000000007
   327   1      3.7750000000000057      35.862500000000011       39.63750000000001
   328   1      5.6625000000000085      33.975000000000009       39.63750000000001
   329   1      5.6625000000000085      35.862500000000011      37.750000000000007
   330   1      3.7750000000000057      33.975000000000009      41.525000000000006
   331   1      3.7750000000000057      35.862500000000011      43.412500000000009
   332   1      5.6625000000000085      33.975000000000009      43.412500000000009
   333   1      5.6625000000000085      35.862500000000011      41.525000000000006
   334   1      3.7750000000000057      33.975000000000009      45.300000000000004
   335   1      3.7750000000000057      35.862500000000011                 47.1875
   336   1      5.6625000000000085      33.975000000000009                 47.1875
   337   1      5.6625000000000085      35.862500000000011      45.300000000000004
   338   1      3.7750000000000057      33.975000000000009       49.07500000000001
   339   1      3.7750000000000057      35.862500000000011      50.962500000000013
   340   1      5.6625000000000085      33.975000000000009      50.962500000000013
   341   1      5.6625000000000085      35.862500000000011       49.07500000000001
   342   1      3.7750000000000057      33.975000000000009      52.850000000000001
   343   1      3.7750000000000057      35.862500000000011      54.737500000000018
   344   1      5.6625000000000085      33.975000000000009      54.737500000000018
   345   1      5.6625000000000085      35.862500000000011      52.850000000000001
   346   1      3.7750000000000057      33.975000000000009      56.625000000000007
   347   1      3.7750000000000057      35.862500000000011       58.51250000000001
   348   1      5.6625000000000085      33.975000000000009       58.51250000000001
   349   1      5.6625000000000085      35.862500000000011      56.625000000000007
   350   1      3.7750000000000057      33.975000000000009      60.400000000000006
   351   1      5.6625000000000085      33.975000000000009      62.287500000000009
   352   1      5.6625000000000085      35.862500000000011      60.400000000000006
   353   1      5.6625000000000085      33.975000000000009      66.062500000000014
   354   1      5.6625000000000085      35.862500000000011      64.175000000000011
   355   1      5.6625000000000085      35.862500000000011      67.950000000000003
   356   1      5.6625000000000085      37.750000000000007      16.987500000000008
   357   1      5.6625000000000085       39.63750000000001      15.100000000000009
   358   1      5.6625000000000085      37.750000000000007      20.762500000000006