model_files/Co/Co_3000/Co_522/data.Co_522_hcp_2941 (written by ASE) 

2941 	 atoms 
1  atom types
0.0                      30  xlo xhi
0.0                      30  ylo yhi
0.0                      30  zlo zhi


Atoms 

     1   1      1.2549999999999955      11.294999999999995      15.059999999999993
     2   1      1.2549999999999955      12.549999999999994      13.804999999999993
     3   1      1.2549999999999955      13.804999999999993      12.549999999999994
     4   1      1.2549999999999955      12.549999999999994      16.314999999999994
     5   1      1.2549999999999955      13.804999999999993      15.059999999999993
     6   1      1.2549999999999955      13.804999999999993      17.569999999999993
     7   1      1.2549999999999955      15.059999999999993      11.294999999999995
     8   1      1.2549999999999955      15.059999999999993      13.804999999999993
     9   1      1.2549999999999955      16.314999999999994      12.549999999999994
    10   1      29.999999999999993      15.059999999999993      15.059999999999993
    11   1      1.2549999999999955      15.059999999999993      16.314999999999994
    12   1      1.2549999999999955      16.314999999999994      15.059999999999993
    13   1      1.2549999999999955      15.059999999999993      18.824999999999992
    14   1      1.2549999999999955      16.314999999999994      17.569999999999993
    15   1      1.2549999999999955      17.569999999999993      13.804999999999993
    16   1      1.2549999999999955      17.569999999999993      16.314999999999994
    17   1      1.2549999999999955      18.824999999999992      15.059999999999993
    18   1      3.7649999999999935       6.274999999999995      15.059999999999993
    19   1      3.7649999999999935      7.5299999999999931      13.804999999999993
    20   1      3.7649999999999935       8.784999999999993      12.549999999999994
    21   1      3.7649999999999935      7.5299999999999931      16.314999999999994
    22   1      3.7649999999999935       8.784999999999993      15.059999999999993
    23   1      3.7649999999999935       8.784999999999993      17.569999999999993
    24   1      3.7649999999999935      10.039999999999994      11.294999999999995
    25   1      3.7649999999999935      11.294999999999995      10.039999999999994
    26   1      2.5099999999999945      11.294999999999995      13.804999999999993
    27   1      3.7649999999999935      10.039999999999994      13.804999999999993
    28   1      3.7649999999999935      11.294999999999995      12.549999999999994
    29   1      2.5099999999999945      10.039999999999994      15.059999999999993
    30   1      2.5099999999999945      11.294999999999995      16.314999999999994
    31   1      3.7649999999999935      10.039999999999994      16.314999999999994
    32   1      3.7649999999999935      11.294999999999995      15.059999999999993
    33   1      3.7649999999999935      10.039999999999994      18.824999999999992
    34   1      3.7649999999999935      11.294999999999995      17.569999999999993
    35   1      3.7649999999999935      11.294999999999995      20.079999999999991
    36   1      3.7649999999999935      12.549999999999994       8.784999999999993
    37   1      3.7649999999999935      13.804999999999993      7.5299999999999931
    38   1      2.5099999999999945      13.804999999999993      11.294999999999995
    39   1      3.7649999999999935      12.549999999999994      11.294999999999995
    40   1      3.7649999999999935      13.804999999999993      10.039999999999994
    41   1      2.5099999999999945      12.549999999999994      12.549999999999994
    42   1      2.5099999999999945      13.804999999999993      13.804999999999993
    43   1      3.7649999999999935      12.549999999999994      13.804999999999993
    44   1      3.7649999999999935      13.804999999999993      12.549999999999994
    45   1      2.5099999999999945      12.549999999999994      15.059999999999993
    46   1      2.5099999999999945      13.804999999999993      16.314999999999994
    47   1      3.7649999999999935      12.549999999999994      16.314999999999994
    48   1      3.7649999999999935      13.804999999999993      15.059999999999993
    49   1      2.5099999999999945      12.549999999999994      17.569999999999993
    50   1      2.5099999999999945      13.804999999999993      18.824999999999992
    51   1      3.7649999999999935      12.549999999999994      18.824999999999992
    52   1      3.7649999999999935      13.804999999999993      17.569999999999993
    53   1      3.7649999999999935      12.549999999999994      21.334999999999987
    54   1      3.7649999999999935      13.804999999999993      20.079999999999991
    55   1      3.7649999999999935      13.804999999999993      22.589999999999993
    56   1      3.7649999999999935      15.059999999999993       6.274999999999995
    57   1      3.7649999999999935      15.059999999999993       8.784999999999993
    58   1      3.7649999999999935      16.314999999999994      7.5299999999999931
    59   1      2.5099999999999945      15.059999999999993      10.039999999999994
    60   1      2.5099999999999945      16.314999999999994      11.294999999999995
    61   1      3.7649999999999935      15.059999999999993      11.294999999999995
    62   1      3.7649999999999935      16.314999999999994      10.039999999999994
    63   1      2.5099999999999945      15.059999999999993      12.549999999999994
    64   1      2.5099999999999945      16.314999999999994      13.804999999999993
    65   1      3.7649999999999935      15.059999999999993      13.804999999999993
    66   1      3.7649999999999935      16.314999999999994      12.549999999999994
    67   1      2.5099999999999945      15.059999999999993      15.059999999999993
    68   1      2.5099999999999945      16.314999999999994      16.314999999999994
    69   1      3.7649999999999935      15.059999999999993      16.314999999999994
    70   1      3.7649999999999935      16.314999999999994      15.059999999999993
    71   1      2.5099999999999945      15.059999999999993      17.569999999999993
    72   1      2.5099999999999945      16.314999999999994      18.824999999999992
    73   1      3.7649999999999935      15.059999999999993      18.824999999999992
    74   1      3.7649999999999935      16.314999999999994      17.569999999999993
    75   1      2.5099999999999945      15.059999999999993      20.079999999999991
    76   1      3.7649999999999935      15.059999999999993      21.334999999999987
    77   1      3.7649999999999935      16.314999999999994      20.079999999999991
    78   1      3.7649999999999935      15.059999999999993      23.844999999999992
    79   1      3.7649999999999935      16.314999999999994      22.589999999999993
    80   1      3.7649999999999935      17.569999999999993       8.784999999999993
    81   1      3.7649999999999935      17.569999999999993      11.294999999999995
    82   1      3.7649999999999935      18.824999999999992      10.039999999999994
    83   1      2.5099999999999945      17.569999999999993      12.549999999999994
    84   1      2.5099999999999945      18.824999999999992      13.804999999999993
    85   1      3.7649999999999935      17.569999999999993      13.804999999999993
    86   1      3.7649999999999935      18.824999999999992      12.549999999999994
    87   1      2.5099999999999945      17.569999999999993      15.059999999999993
    88   1      2.5099999999999945      18.824999999999992      16.314999999999994
    89   1      3.7649999999999935      17.569999999999993      16.314999999999994
    90   1      3.7649999999999935      18.824999999999992      15.059999999999993
    91   1      2.5099999999999945      17.569999999999993      17.569999999999993
    92   1      3.7649999999999935      17.569999999999993      18.824999999999992
    93   1      3.7649999999999935      18.824999999999992      17.569999999999993
    94   1      3.7649999999999935      17.569999999999993      21.334999999999987
    95   1      3.7649999999999935      18.824999999999992      20.079999999999991
    96   1      3.7649999999999935      20.079999999999991      11.294999999999995
    97   1      3.7649999999999935      20.079999999999991      13.804999999999993
    98   1      3.7649999999999935      21.334999999999987      12.549999999999994
    99   1      2.5099999999999945      20.079999999999991      15.059999999999993
   100   1      3.7649999999999935      20.079999999999991      16.314999999999994
   101   1      3.7649999999999935      21.334999999999987      15.059999999999993
   102   1      3.7649999999999935      20.079999999999991      18.824999999999992
   103   1      3.7649999999999935      21.334999999999987      17.569999999999993
   104   1      3.7649999999999935      22.589999999999993      13.804999999999993
   105   1      3.7649999999999935      22.589999999999993      16.314999999999994
   106   1      3.7649999999999935      23.844999999999992      15.059999999999993
   107   1       6.274999999999995      3.7649999999999935      15.059999999999993
   108   1       6.274999999999995       6.274999999999995      7.5299999999999931
   109   1      5.0199999999999942       6.274999999999995      11.294999999999995
   110   1       6.274999999999995      5.0199999999999942      11.294999999999995
   111   1       6.274999999999995       6.274999999999995      10.039999999999994
   112   1      5.0199999999999942      5.0199999999999942      12.549999999999994
   113   1      5.0199999999999942       6.274999999999995      13.804999999999993
   114   1       6.274999999999995      5.0199999999999942      13.804999999999993
   115   1       6.274999999999995       6.274999999999995      12.549999999999994
   116   1      5.0199999999999942      5.0199999999999942      15.059999999999993
   117   1      5.0199999999999942       6.274999999999995      16.314999999999994
   118   1       6.274999999999995      5.0199999999999942      16.314999999999994
   119   1       6.274999999999995       6.274999999999995      15.059999999999993
   120   1      5.0199999999999942      5.0199999999999942      17.569999999999993
   121   1      5.0199999999999942       6.274999999999995      18.824999999999992
   122   1       6.274999999999995      5.0199999999999942      18.824999999999992
   123   1       6.274999999999995       6.274999999999995      17.569999999999993
   124   1       6.274999999999995       6.274999999999995      20.079999999999991
   125   1       6.274999999999995       6.274999999999995      22.589999999999993
   126   1       6.274999999999995      7.5299999999999931       6.274999999999995
   127   1      5.0199999999999942       8.784999999999993       8.784999999999993
   128   1       6.274999999999995      7.5299999999999931       8.784999999999993
   129   1       6.274999999999995       8.784999999999993      7.5299999999999931
   130   1      5.0199999999999942      7.5299999999999931      10.039999999999994
   131   1      5.0199999999999942       8.784999999999993      11.294999999999995
   132   1       6.274999999999995      7.5299999999999931      11.294999999999995
   133   1       6.274999999999995       8.784999999999993      10.039999999999994
   134   1      5.0199999999999942      7.5299999999999931      12.549999999999994
   135   1      5.0199999999999942       8.784999999999993      13.804999999999993
   136   1       6.274999999999995      7.5299999999999931      13.804999999999993
   137   1       6.274999999999995       8.784999999999993      12.549999999999994
   138   1      5.0199999999999942      7.5299999999999931      15.059999999999993
   139   1      5.0199999999999942       8.784999999999993      16.314999999999994
   140   1       6.274999999999995      7.5299999999999931      16.314999999999994
   141   1       6.274999999999995       8.784999999999993      15.059999999999993
   142   1      5.0199999999999942      7.5299999999999931      17.569999999999993
   143   1      5.0199999999999942       8.784999999999993      18.824999999999992
   144   1       6.274999999999995      7.5299999999999931      18.824999999999992
   145   1       6.274999999999995       8.784999999999993      17.569999999999993
   146   1      5.0199999999999942      7.5299999999999931      20.079999999999991
   147   1      5.0199999999999942       8.784999999999993      21.334999999999987
   148   1       6.274999999999995      7.5299999999999931      21.334999999999987
   149   1       6.274999999999995       8.784999999999993      20.079999999999991
   150   1       6.274999999999995      7.5299999999999931      23.844999999999992
   151   1       6.274999999999995       8.784999999999993      22.589999999999993
   152   1      5.0199999999999942      11.294999999999995       6.274999999999995
   153   1       6.274999999999995      10.039999999999994       6.274999999999995
   154   1       6.274999999999995      11.294999999999995      5.0199999999999942
   155   1      5.0199999999999942      10.039999999999994      7.5299999999999931
   156   1      5.0199999999999942      11.294999999999995       8.784999999999993
   157   1       6.274999999999995      10.039999999999994       8.784999999999993
   158   1       6.274999999999995      11.294999999999995      7.5299999999999931
   159   1      5.0199999999999942      10.039999999999994      10.039999999999994
   160   1      5.0199999999999942      11.294999999999995      11.294999999999995
   161   1       6.274999999999995      10.039999999999994      11.294999999999995
   162   1       6.274999999999995      11.294999999999995      10.039999999999994
   163   1      5.0199999999999942      10.039999999999994      12.549999999999994
   164   1      5.0199999999999942      11.294999999999995      13.804999999999993
   165   1       6.274999999999995      10.039999999999994      13.804999999999993
   166   1       6.274999999999995      11.294999999999995      12.549999999999994
   167   1      5.0199999999999942      10.039999999999994      15.059999999999993
   168   1      5.0199999999999942      11.294999999999995      16.314999999999994
   169   1       6.274999999999995      10.039999999999994      16.314999999999994
   170   1       6.274999999999995      11.294999999999995      15.059999999999993
   171   1      5.0199999999999942      10.039999999999994      17.569999999999993
   172   1      5.0199999999999942      11.294999999999995      18.824999999999992
   173   1       6.274999999999995      10.039999999999994      18.824999999999992
   174   1       6.274999999999995      11.294999999999995      17.569999999999993
   175   1      5.0199999999999942      10.039999999999994      20.079999999999991
   176   1      5.0199999999999942      11.294999999999995      21.334999999999987
   177   1       6.274999999999995      10.039999999999994      21.334999999999987
   178   1       6.274999999999995      11.294999999999995      20.079999999999991
   179   1      5.0199999999999942      10.039999999999994      22.589999999999993
   180   1      5.0199999999999942      11.294999999999995      23.844999999999992
   181   1       6.274999999999995      10.039999999999994      23.844999999999992
   182   1       6.274999999999995      11.294999999999995      22.589999999999993
   183   1       6.274999999999995      11.294999999999995      25.099999999999994
   184   1      5.0199999999999942      12.549999999999994      5.0199999999999942
   185   1      5.0199999999999942      13.804999999999993       6.274999999999995
   186   1       6.274999999999995      12.549999999999994       6.274999999999995
   187   1       6.274999999999995      13.804999999999993      5.0199999999999942
   188   1      5.0199999999999942      12.549999999999994      7.5299999999999931
   189   1      5.0199999999999942      13.804999999999993       8.784999999999993
   190   1       6.274999999999995      12.549999999999994       8.784999999999993
   191   1       6.274999999999995      13.804999999999993      7.5299999999999931
   192   1      5.0199999999999942      12.549999999999994      10.039999999999994
   193   1      5.0199999999999942      13.804999999999993      11.294999999999995
   194   1       6.274999999999995      12.549999999999994      11.294999999999995
   195   1       6.274999999999995      13.804999999999993      10.039999999999994
   196   1      5.0199999999999942      12.549999999999994      12.549999999999994
   197   1      5.0199999999999942      13.804999999999993      13.804999999999993
   198   1       6.274999999999995      12.549999999999994      13.804999999999993
   199   1       6.274999999999995      13.804999999999993      12.549999999999994
   200   1      5.0199999999999942      12.549999999999994      15.059999999999993
   201   1      5.0199999999999942      13.804999999999993      16.314999999999994
   202   1       6.274999999999995      12.549999999999994      16.314999999999994
   203   1       6.274999999999995      13.804999999999993      15.059999999999993
   204   1      5.0199999999999942      12.549999999999994      17.569999999999993
   205   1      5.0199999999999942      13.804999999999993      18.824999999999992
   206   1       6.274999999999995      12.549999999999994      18.824999999999992
   207   1       6.274999999999995      13.804999999999993      17.569999999999993
   208   1      5.0199999999999942      12.549999999999994      20.079999999999991
   209   1      5.0199999999999942      13.804999999999993      21.334999999999987
   210   1       6.274999999999995      12.549999999999994      21.334999999999987
   211   1       6.274999999999995      13.804999999999993      20.079999999999991
   212   1      5.0199999999999942      12.549999999999994      22.589999999999993
   213   1      5.0199999999999942      13.804999999999993      23.844999999999992
   214   1       6.274999999999995      12.549999999999994      23.844999999999992
   215   1       6.274999999999995      13.804999999999993      22.589999999999993
   216   1      5.0199999999999942      12.549999999999994      25.099999999999994
   217   1       6.274999999999995      13.804999999999993      25.099999999999994
   218   1       6.274999999999995      15.059999999999993      3.7649999999999935
   219   1      5.0199999999999942      15.059999999999993      5.0199999999999942
   220   1      5.0199999999999942      16.314999999999994       6.274999999999995
   221   1       6.274999999999995      15.059999999999993       6.274999999999995
   222   1       6.274999999999995      16.314999999999994      5.0199999999999942
   223   1      5.0199999999999942      15.059999999999993      7.5299999999999931
   224   1      5.0199999999999942      16.314999999999994       8.784999999999993
   225   1       6.274999999999995      15.059999999999993       8.784999999999993
   226   1       6.274999999999995      16.314999999999994      7.5299999999999931
   227   1      5.0199999999999942      15.059999999999993      10.039999999999994
   228   1      5.0199999999999942      16.314999999999994      11.294999999999995
   229   1       6.274999999999995      15.059999999999993      11.294999999999995
   230   1       6.274999999999995      16.314999999999994      10.039999999999994
   231   1      5.0199999999999942      15.059999999999993      12.549999999999994
   232   1      5.0199999999999942      16.314999999999994      13.804999999999993
   233   1       6.274999999999995      15.059999999999993      13.804999999999993
   234   1       6.274999999999995      16.314999999999994      12.549999999999994
   235   1      5.0199999999999942      15.059999999999993      15.059999999999993
   236   1      5.0199999999999942      16.314999999999994      16.314999999999994
   237   1       6.274999999999995      15.059999999999993      16.314999999999994
   238   1       6.274999999999995      16.314999999999994      15.059999999999993
   239   1      5.0199999999999942      15.059999999999993      17.569999999999993
   240   1      5.0199999999999942      16.314999999999994      18.824999999999992
   241   1       6.274999999999995      15.059999999999993      18.824999999999992
   242   1       6.274999999999995      16.314999999999994      17.569999999999993
   243   1      5.0199999999999942      15.059999999999993      20.079999999999991
   244   1      5.0199999999999942      16.314999999999994      21.334999999999987
   245   1       6.274999999999995      15.059999999999993      21.334999999999987
   246   1       6.274999999999995      16.314999999999994      20.079999999999991
   247   1      5.0199999999999942      15.059999999999993      22.589999999999993
   248   1      5.0199999999999942      16.314999999999994      23.844999999999992
   249   1       6.274999999999995      15.059999999999993      23.844999999999992
   250   1       6.274999999999995      16.314999999999994      22.589999999999993
   251   1      5.0199999999999942      15.059999999999993      25.099999999999994
   252   1       6.274999999999995      15.059999999999993      26.354999999999993
   253   1       6.274999999999995      16.314999999999994      25.099999999999994
   254   1      5.0199999999999942      17.569999999999993      5.0199999999999942
   255   1      5.0199999999999942      18.824999999999992       6.274999999999995
   256   1       6.274999999999995      17.569999999999993       6.274999999999995
   257   1       6.274999999999995      18.824999999999992      5.0199999999999942
   258   1      5.0199999999999942      17.569999999999993      7.5299999999999931
   259   1      5.0199999999999942      18.824999999999992       8.784999999999993
   260   1       6.274999999999995      17.569999999999993       8.784999999999993
   261   1       6.274999999999995      18.824999999999992      7.5299999999999931
   262   1      5.0199999999999942      17.569999999999993      10.039999999999994
   263   1      5.0199999999999942      18.824999999999992      11.294999999999995
   264   1       6.274999999999995      17.569999999999993      11.294999999999995
   265   1       6.274999999999995      18.824999999999992      10.039999999999994
   266   1      5.0199999999999942      17.569999999999993      12.549999999999994
   267   1      5.0199999999999942      18.824999999999992      13.804999999999993
   268   1       6.274999999999995      17.569999999999993      13.804999999999993
   269   1       6.274999999999995      18.824999999999992      12.549999999999994
   270   1      5.0199999999999942      17.569999999999993      15.059999999999993
   271   1      5.0199999999999942      18.824999999999992      16.314999999999994
   272   1       6.274999999999995      17.569999999999993      16.314999999999994
   273   1       6.274999999999995      18.824999999999992      15.059999999999993
   274   1      5.0199999999999942      17.569999999999993      17.569999999999993
   275   1      5.0199999999999942      18.824999999999992      18.824999999999992
   276   1       6.274999999999995      17.569999999999993      18.824999999999992
   277   1       6.274999999999995      18.824999999999992      17.569999999999993
   278   1      5.0199999999999942      17.569999999999993      20.079999999999991
   279   1      5.0199999999999942      18.824999999999992      21.334999999999987
   280   1       6.274999999999995      17.569999999999993      21.334999999999987
   281   1       6.274999999999995      18.824999999999992      20.079999999999991
   282   1      5.0199999999999942      17.569999999999993      22.589999999999993
   283   1      5.0199999999999942      18.824999999999992      23.844999999999992
   284   1       6.274999999999995      17.569999999999993      23.844999999999992
   285   1       6.274999999999995      18.824999999999992      22.589999999999993
   286   1      5.0199999999999942      17.569999999999993      25.099999999999994
   287   1       6.274999999999995      18.824999999999992      25.099999999999994
   288   1       6.274999999999995      20.079999999999991       6.274999999999995
   289   1      5.0199999999999942      20.079999999999991      7.5299999999999931
   290   1      5.0199999999999942      21.334999999999987       8.784999999999993
   291   1       6.274999999999995      20.079999999999991       8.784999999999993
   292   1       6.274999999999995      21.334999999999987      7.5299999999999931
   293   1      5.0199999999999942      20.079999999999991      10.039999999999994
   294   1      5.0199999999999942      21.334999999999987      11.294999999999995
   295   1       6.274999999999995      20.079999999999991      11.294999999999995
   296   1       6.274999999999995      21.334999999999987      10.039999999999994
   297   1      5.0199999999999942      20.079999999999991      12.549999999999994
   298   1      5.0199999999999942      21.334999999999987      13.804999999999993
   299   1       6.274999999999995      20.079999999999991      13.804999999999993
   300   1       6.274999999999995      21.334999999999987      12.549999999999994
   301   1      5.0199999999999942      20.079999999999991      15.059999999999993
   302   1      5.0199999999999942      21.334999999999987      16.314999999999994
   303   1       6.274999999999995      20.079999999999991      16.314999999999994
   304   1       6.274999999999995      21.334999999999987      15.059999999999993
   305   1      5.0199999999999942      20.079999999999991      17.569999999999993
   306   1      5.0199999999999942      21.334999999999987      18.824999999999992
   307   1       6.274999999999995      20.079999999999991      18.824999999999992
   308   1       6.274999999999995      21.334999999999987      17.569999999999993
   309   1      5.0199999999999942      20.079999999999991      20.079999999999991
   310   1      5.0199999999999942      21.334999999999987      21.334999999999987
   311   1       6.274999999999995      20.079999999999991      21.334999999999987
   312   1       6.274999999999995      21.334999999999987      20.079999999999991
   313   1      5.0199999999999942      20.079999999999991      22.589999999999993
   314   1       6.274999999999995      20.079999999999991      23.844999999999992
   315   1       6.274999999999995      21.334999999999987      22.589999999999993
   316   1       6.274999999999995      22.589999999999993       6.274999999999995
   317   1       6.274999999999995      22.589999999999993       8.784999999999993
   318   1       6.274999999999995      23.844999999999992      7.5299999999999931
   319   1      5.0199999999999942      22.589999999999993      10.039999999999994
   320   1      5.0199999999999942      23.844999999999992      11.294999999999995
   321   1       6.274999999999995      22.589999999999993      11.294999999999995
   322   1       6.274999999999995      23.844999999999992      10.039999999999994
   323   1      5.0199999999999942      22.589999999999993      12.549999999999994
   324   1      5.0199999999999942      23.844999999999992      13.804999999999993
   325   1       6.274999999999995      22.589999999999993      13.804999999999993
   326   1       6.274999999999995      23.844999999999992      12.549999999999994
   327   1      5.0199999999999942      22.589999999999993      15.059999999999993
   328   1      5.0199999999999942      23.844999999999992      16.314999999999994
   329   1       6.274999999999995      22.589999999999993      16.314999999999994
   330   1       6.274999999999995      23.844999999999992      15.059999999999993
   331   1      5.0199999999999942      22.589999999999993      17.569999999999993
   332   1      5.0199999999999942      23.844999999999992      18.824999999999992
   333   1       6.274999999999995      22.589999999999993      18.824999999999992
   334   1       6.274999999999995      23.844999999999992      17.569999999999993
   335   1      5.0199999999999942      22.589999999999993      20.079999999999991
   336   1       6.274999999999995      22.589999999999993      21.334999999999987
   337   1       6.274999999999995      23.844999999999992      20.079999999999991
   338   1       6.274999999999995      22.589999999999993      23.844999999999992
   339   1       6.274999999999995      23.844999999999992      22.589999999999993
   340   1       6.274999999999995      25.099999999999994      11.294999999999995
   341   1      5.0199999999999942      25.099999999999994      12.549999999999994
   342   1       6.274999999999995      25.099999999999994      13.804999999999993
   343   1      5.0199999999999942      25.099999999999994      15.059999999999993
   344   1       6.274999999999995      25.099999999999994      16.314999999999994
   345   1       6.274999999999995      26.354999999999993      15.059999999999993
   346   1      5.0199999999999942      25.099999999999994      17.569999999999993
   347   1       6.274999999999995      25.099999999999994      18.824999999999992
   348   1      7.5299999999999931      3.7649999999999935      13.804999999999993
   349   1       8.784999999999993      3.7649999999999935      12.549999999999994
   350   1      7.5299999999999931      3.7649999999999935      16.314999999999994
   351   1       8.784999999999993      3.7649999999999935      15.059999999999993
   352   1       8.784999999999993      3.7649999999999935      17.569999999999993
   353   1      7.5299999999999931       6.274999999999995       6.274999999999995
   354   1      7.5299999999999931       6.274999999999995       8.784999999999993
   355   1       8.784999999999993      5.0199999999999942       8.784999999999993
   356   1       8.784999999999993       6.274999999999995      7.5299999999999931
   357   1      7.5299999999999931      5.0199999999999942      10.039999999999994
   358   1      7.5299999999999931       6.274999999999995      11.294999999999995