model_files/Pt/Pt_10000/Pt_531/data.Pt_531_fcc_10151 (written by ASE) 

10151 	 atoms 
1  atom types
0.0                      70  xlo xhi
0.0                      70  ylo yhi
0.0                      70  zlo zhi


Atoms 

     1   1      1.9600000000000009      29.399999999999999      31.359999999999996
     2   1      1.9600000000000009      29.399999999999999      35.280000000000001
     3   1      1.9600000000000009      29.399999999999999      39.199999999999996
     4   1      1.9600000000000009      31.359999999999996      29.399999999999999
     5   1                       0                   33.32                   33.32
     6   1      1.9600000000000009      31.359999999999996                   33.32
     7   1      1.9600000000000009                   33.32      31.359999999999996
     8   1                       0      31.359999999999996      35.280000000000001
     9   1                       0                   33.32      37.240000000000002
    10   1      1.9600000000000009      31.359999999999996      37.240000000000002
    11   1      1.9600000000000009                   33.32      35.280000000000001
    12   1      1.9600000000000009      31.359999999999996      41.159999999999997
    13   1      1.9600000000000009                   33.32      39.199999999999996
    14   1      1.9600000000000009      35.280000000000001      29.399999999999999
    15   1                       0      35.280000000000001      31.359999999999996
    16   1                       0      37.240000000000002                   33.32
    17   1      1.9600000000000009      35.280000000000001                   33.32
    18   1      1.9600000000000009      37.240000000000002      31.359999999999996
    19   1                       0      35.280000000000001      35.280000000000001
    20   1                       0      37.240000000000002      37.240000000000002
    21   1      1.9600000000000009      35.280000000000001      37.240000000000002
    22   1      1.9600000000000009      37.240000000000002      35.280000000000001
    23   1                       0      35.280000000000001      39.199999999999996
    24   1      1.9600000000000009      35.280000000000001      41.159999999999997
    25   1      1.9600000000000009      37.240000000000002      39.199999999999996
    26   1      1.9600000000000009      39.199999999999996      29.399999999999999
    27   1      1.9600000000000009      39.199999999999996                   33.32
    28   1      1.9600000000000009      41.159999999999997      31.359999999999996
    29   1                       0      39.199999999999996      35.280000000000001
    30   1      1.9600000000000009      39.199999999999996      37.240000000000002
    31   1      1.9600000000000009      41.159999999999997      35.280000000000001
    32   1      1.9600000000000009      39.199999999999996      41.159999999999997
    33   1      1.9600000000000009      41.159999999999997      39.199999999999996
    34   1      5.8799999999999981      21.559999999999999      35.280000000000001
    35   1      5.8799999999999981      23.519999999999992      29.399999999999999
    36   1      5.8799999999999981      25.479999999999997      27.439999999999998
    37   1      3.9199999999999982      25.479999999999997                   33.32
    38   1      5.8799999999999981      23.519999999999992                   33.32
    39   1      5.8799999999999981      25.479999999999997      31.359999999999996
    40   1      3.9199999999999982      25.479999999999997      37.240000000000002
    41   1      5.8799999999999981      23.519999999999992      37.240000000000002
    42   1      5.8799999999999981      25.479999999999997      35.280000000000001
    43   1      5.8799999999999981      23.519999999999992      41.159999999999997
    44   1      5.8799999999999981      25.479999999999997      39.199999999999996
    45   1      5.8799999999999981      25.479999999999997      43.119999999999997
    46   1      5.8799999999999981      27.439999999999998      25.479999999999997
    47   1      5.8799999999999981      29.399999999999999      23.519999999999992
    48   1      3.9199999999999982      27.439999999999998      27.439999999999998
    49   1      3.9199999999999982      29.399999999999999      29.399999999999999
    50   1      5.8799999999999981      27.439999999999998      29.399999999999999
    51   1      5.8799999999999981      29.399999999999999      27.439999999999998
    52   1      3.9199999999999982      27.439999999999998      31.359999999999996
    53   1      3.9199999999999982      29.399999999999999                   33.32
    54   1      5.8799999999999981      27.439999999999998                   33.32
    55   1      5.8799999999999981      29.399999999999999      31.359999999999996
    56   1      3.9199999999999982      27.439999999999998      35.280000000000001
    57   1      3.9199999999999982      29.399999999999999      37.240000000000002
    58   1      5.8799999999999981      27.439999999999998      37.240000000000002
    59   1      5.8799999999999981      29.399999999999999      35.280000000000001
    60   1      3.9199999999999982      27.439999999999998      39.199999999999996
    61   1      3.9199999999999982      29.399999999999999      41.159999999999997
    62   1      5.8799999999999981      27.439999999999998      41.159999999999997
    63   1      5.8799999999999981      29.399999999999999      39.199999999999996
    64   1      3.9199999999999982      27.439999999999998      43.119999999999997
    65   1      5.8799999999999981      27.439999999999998      45.079999999999991
    66   1      5.8799999999999981      29.399999999999999      43.119999999999997
    67   1      5.8799999999999981      29.399999999999999      47.039999999999992
    68   1      3.9199999999999982                   33.32      25.479999999999997
    69   1      5.8799999999999981      31.359999999999996      25.479999999999997
    70   1      5.8799999999999981                   33.32      23.519999999999992
    71   1      3.9199999999999982      31.359999999999996      27.439999999999998
    72   1      3.9199999999999982                   33.32      29.399999999999999
    73   1      5.8799999999999981      31.359999999999996      29.399999999999999
    74   1      5.8799999999999981                   33.32      27.439999999999998
    75   1      3.9199999999999982      31.359999999999996      31.359999999999996
    76   1      3.9199999999999982                   33.32                   33.32
    77   1      5.8799999999999981      31.359999999999996                   33.32
    78   1      5.8799999999999981                   33.32      31.359999999999996
    79   1      3.9199999999999982      31.359999999999996      35.280000000000001
    80   1      3.9199999999999982                   33.32      37.240000000000002
    81   1      5.8799999999999981      31.359999999999996      37.240000000000002
    82   1      5.8799999999999981                   33.32      35.280000000000001
    83   1      3.9199999999999982      31.359999999999996      39.199999999999996
    84   1      3.9199999999999982                   33.32      41.159999999999997
    85   1      5.8799999999999981      31.359999999999996      41.159999999999997
    86   1      5.8799999999999981                   33.32      39.199999999999996
    87   1      3.9199999999999982      31.359999999999996      43.119999999999997
    88   1      3.9199999999999982                   33.32      45.079999999999991
    89   1      5.8799999999999981      31.359999999999996      45.079999999999991
    90   1      5.8799999999999981                   33.32      43.119999999999997
    91   1      5.8799999999999981                   33.32      47.039999999999992
    92   1      5.8799999999999981      35.280000000000001      21.559999999999999
    93   1      3.9199999999999982      37.240000000000002      25.479999999999997
    94   1      5.8799999999999981      35.280000000000001      25.479999999999997
    95   1      5.8799999999999981      37.240000000000002      23.519999999999992
    96   1      3.9199999999999982      35.280000000000001      27.439999999999998
    97   1      3.9199999999999982      37.240000000000002      29.399999999999999
    98   1      5.8799999999999981      35.280000000000001      29.399999999999999
    99   1      5.8799999999999981      37.240000000000002      27.439999999999998
   100   1      3.9199999999999982      35.280000000000001      31.359999999999996
   101   1      3.9199999999999982      37.240000000000002                   33.32
   102   1      5.8799999999999981      35.280000000000001                   33.32
   103   1      5.8799999999999981      37.240000000000002      31.359999999999996
   104   1      3.9199999999999982      35.280000000000001      35.280000000000001
   105   1      3.9199999999999982      37.240000000000002      37.240000000000002
   106   1      5.8799999999999981      35.280000000000001      37.240000000000002
   107   1      5.8799999999999981      37.240000000000002      35.280000000000001
   108   1      3.9199999999999982      35.280000000000001      39.199999999999996
   109   1      3.9199999999999982      37.240000000000002      41.159999999999997
   110   1      5.8799999999999981      35.280000000000001      41.159999999999997
   111   1      5.8799999999999981      37.240000000000002      39.199999999999996
   112   1      3.9199999999999982      35.280000000000001      43.119999999999997
   113   1      3.9199999999999982      37.240000000000002      45.079999999999991
   114   1      5.8799999999999981      35.280000000000001      45.079999999999991
   115   1      5.8799999999999981      37.240000000000002      43.119999999999997
   116   1      5.8799999999999981      35.280000000000001                      49
   117   1      5.8799999999999981      37.240000000000002      47.039999999999992
   118   1      5.8799999999999981      39.199999999999996      25.479999999999997
   119   1      5.8799999999999981      41.159999999999997      23.519999999999992
   120   1      3.9199999999999982      39.199999999999996      27.439999999999998
   121   1      3.9199999999999982      41.159999999999997      29.399999999999999
   122   1      5.8799999999999981      39.199999999999996      29.399999999999999
   123   1      5.8799999999999981      41.159999999999997      27.439999999999998
   124   1      3.9199999999999982      39.199999999999996      31.359999999999996
   125   1      3.9199999999999982      41.159999999999997                   33.32
   126   1      5.8799999999999981      39.199999999999996                   33.32
   127   1      5.8799999999999981      41.159999999999997      31.359999999999996
   128   1      3.9199999999999982      39.199999999999996      35.280000000000001
   129   1      3.9199999999999982      41.159999999999997      37.240000000000002
   130   1      5.8799999999999981      39.199999999999996      37.240000000000002
   131   1      5.8799999999999981      41.159999999999997      35.280000000000001
   132   1      3.9199999999999982      39.199999999999996      39.199999999999996
   133   1      3.9199999999999982      41.159999999999997      41.159999999999997
   134   1      5.8799999999999981      39.199999999999996      41.159999999999997
   135   1      5.8799999999999981      41.159999999999997      39.199999999999996
   136   1      3.9199999999999982      39.199999999999996      43.119999999999997
   137   1      5.8799999999999981      39.199999999999996      45.079999999999991
   138   1      5.8799999999999981      41.159999999999997      43.119999999999997
   139   1      5.8799999999999981      41.159999999999997      47.039999999999992
   140   1      5.8799999999999981      43.119999999999997      25.479999999999997
   141   1      3.9199999999999982      43.119999999999997      27.439999999999998
   142   1      5.8799999999999981      43.119999999999997      29.399999999999999
   143   1      5.8799999999999981      45.079999999999991      27.439999999999998
   144   1      3.9199999999999982      43.119999999999997      31.359999999999996
   145   1      3.9199999999999982      45.079999999999991                   33.32
   146   1      5.8799999999999981      43.119999999999997                   33.32
   147   1      5.8799999999999981      45.079999999999991      31.359999999999996
   148   1      3.9199999999999982      43.119999999999997      35.280000000000001
   149   1      3.9199999999999982      45.079999999999991      37.240000000000002
   150   1      5.8799999999999981      43.119999999999997      37.240000000000002
   151   1      5.8799999999999981      45.079999999999991      35.280000000000001
   152   1      3.9199999999999982      43.119999999999997      39.199999999999996
   153   1      5.8799999999999981      43.119999999999997      41.159999999999997
   154   1      5.8799999999999981      45.079999999999991      39.199999999999996
   155   1      3.9199999999999982      43.119999999999997      43.119999999999997
   156   1      5.8799999999999981      43.119999999999997      45.079999999999991
   157   1      5.8799999999999981      45.079999999999991      43.119999999999997
   158   1      5.8799999999999981      47.039999999999992      29.399999999999999
   159   1      5.8799999999999981      47.039999999999992                   33.32
   160   1      5.8799999999999981      47.039999999999992      37.240000000000002
   161   1      5.8799999999999981                      49      35.280000000000001
   162   1      5.8799999999999981      47.039999999999992      41.159999999999997
   163   1      9.7999999999999972      17.640000000000001      27.439999999999998
   164   1      9.7999999999999972      15.679999999999998                   33.32
   165   1      9.7999999999999972      17.640000000000001      31.359999999999996
   166   1      9.7999999999999972      15.679999999999998      37.240000000000002
   167   1      9.7999999999999972      17.640000000000001      35.280000000000001
   168   1      9.7999999999999972      17.640000000000001      39.199999999999996
   169   1      9.7999999999999972      17.640000000000001      43.119999999999997
   170   1      9.7999999999999972      19.599999999999998      21.559999999999999
   171   1      9.7999999999999972      21.559999999999999      19.599999999999998
   172   1      7.8399999999999963      21.559999999999999      25.479999999999997
   173   1      9.7999999999999972      19.599999999999998      25.479999999999997
   174   1      9.7999999999999972      21.559999999999999      23.519999999999992
   175   1      7.8399999999999963      21.559999999999999      29.399999999999999
   176   1      9.7999999999999972      19.599999999999998      29.399999999999999
   177   1      9.7999999999999972      21.559999999999999      27.439999999999998
   178   1      7.8399999999999963      19.599999999999998      31.359999999999996
   179   1      7.8399999999999963      21.559999999999999                   33.32
   180   1      9.7999999999999972      19.599999999999998                   33.32
   181   1      9.7999999999999972      21.559999999999999      31.359999999999996
   182   1      7.8399999999999963      19.599999999999998      35.280000000000001
   183   1      7.8399999999999963      21.559999999999999      37.240000000000002
   184   1      9.7999999999999972      19.599999999999998      37.240000000000002
   185   1      9.7999999999999972      21.559999999999999      35.280000000000001
   186   1      7.8399999999999963      19.599999999999998      39.199999999999996
   187   1      7.8399999999999963      21.559999999999999      41.159999999999997
   188   1      9.7999999999999972      19.599999999999998      41.159999999999997
   189   1      9.7999999999999972      21.559999999999999      39.199999999999996
   190   1      7.8399999999999963      21.559999999999999      45.079999999999991
   191   1      9.7999999999999972      19.599999999999998      45.079999999999991
   192   1      9.7999999999999972      21.559999999999999      43.119999999999997
   193   1      9.7999999999999972      19.599999999999998                      49
   194   1      9.7999999999999972      21.559999999999999      47.039999999999992
   195   1      9.7999999999999972      21.559999999999999      50.959999999999994
   196   1      7.8399999999999963      25.479999999999997      21.559999999999999
   197   1      9.7999999999999972      23.519999999999992      21.559999999999999
   198   1      9.7999999999999972      25.479999999999997      19.599999999999998
   199   1      7.8399999999999963      23.519999999999992      23.519999999999992
   200   1      7.8399999999999963      25.479999999999997      25.479999999999997
   201   1      9.7999999999999972      23.519999999999992      25.479999999999997
   202   1      9.7999999999999972      25.479999999999997      23.519999999999992
   203   1      7.8399999999999963      23.519999999999992      27.439999999999998
   204   1      7.8399999999999963      25.479999999999997      29.399999999999999
   205   1      9.7999999999999972      23.519999999999992      29.399999999999999
   206   1      9.7999999999999972      25.479999999999997      27.439999999999998
   207   1      7.8399999999999963      23.519999999999992      31.359999999999996
   208   1      7.8399999999999963      25.479999999999997                   33.32
   209   1      9.7999999999999972      23.519999999999992                   33.32
   210   1      9.7999999999999972      25.479999999999997      31.359999999999996
   211   1      7.8399999999999963      23.519999999999992      35.280000000000001
   212   1      7.8399999999999963      25.479999999999997      37.240000000000002
   213   1      9.7999999999999972      23.519999999999992      37.240000000000002
   214   1      9.7999999999999972      25.479999999999997      35.280000000000001
   215   1      7.8399999999999963      23.519999999999992      39.199999999999996
   216   1      7.8399999999999963      25.479999999999997      41.159999999999997
   217   1      9.7999999999999972      23.519999999999992      41.159999999999997
   218   1      9.7999999999999972      25.479999999999997      39.199999999999996
   219   1      7.8399999999999963      23.519999999999992      43.119999999999997
   220   1      7.8399999999999963      25.479999999999997      45.079999999999991
   221   1      9.7999999999999972      23.519999999999992      45.079999999999991
   222   1      9.7999999999999972      25.479999999999997      43.119999999999997
   223   1      7.8399999999999963      23.519999999999992      47.039999999999992
   224   1      7.8399999999999963      25.479999999999997                      49
   225   1      9.7999999999999972      23.519999999999992                      49
   226   1      9.7999999999999972      25.479999999999997      47.039999999999992
   227   1      9.7999999999999972      25.479999999999997      50.959999999999994
   228   1      9.7999999999999972      27.439999999999998      17.640000000000001
   229   1      7.8399999999999963      29.399999999999999      21.559999999999999
   230   1      9.7999999999999972      27.439999999999998      21.559999999999999
   231   1      9.7999999999999972      29.399999999999999      19.599999999999998
   232   1      7.8399999999999963      27.439999999999998      23.519999999999992
   233   1      7.8399999999999963      29.399999999999999      25.479999999999997
   234   1      9.7999999999999972      27.439999999999998      25.479999999999997
   235   1      9.7999999999999972      29.399999999999999      23.519999999999992
   236   1      7.8399999999999963      27.439999999999998      27.439999999999998
   237   1      7.8399999999999963      29.399999999999999      29.399999999999999
   238   1      9.7999999999999972      27.439999999999998      29.399999999999999
   239   1      9.7999999999999972      29.399999999999999      27.439999999999998
   240   1      7.8399999999999963      27.439999999999998      31.359999999999996
   241   1      7.8399999999999963      29.399999999999999                   33.32
   242   1      9.7999999999999972      27.439999999999998                   33.32
   243   1      9.7999999999999972      29.399999999999999      31.359999999999996
   244   1      7.8399999999999963      27.439999999999998      35.280000000000001
   245   1      7.8399999999999963      29.399999999999999      37.240000000000002
   246   1      9.7999999999999972      27.439999999999998      37.240000000000002
   247   1      9.7999999999999972      29.399999999999999      35.280000000000001
   248   1      7.8399999999999963      27.439999999999998      39.199999999999996
   249   1      7.8399999999999963      29.399999999999999      41.159999999999997
   250   1      9.7999999999999972      27.439999999999998      41.159999999999997
   251   1      9.7999999999999972      29.399999999999999      39.199999999999996
   252   1      7.8399999999999963      27.439999999999998      43.119999999999997
   253   1      7.8399999999999963      29.399999999999999      45.079999999999991
   254   1      9.7999999999999972      27.439999999999998      45.079999999999991
   255   1      9.7999999999999972      29.399999999999999      43.119999999999997
   256   1      7.8399999999999963      27.439999999999998      47.039999999999992
   257   1      7.8399999999999963      29.399999999999999                      49
   258   1      9.7999999999999972      27.439999999999998                      49
   259   1      9.7999999999999972      29.399999999999999      47.039999999999992
   260   1      9.7999999999999972      27.439999999999998      52.919999999999995
   261   1      9.7999999999999972      29.399999999999999      50.959999999999994
   262   1      9.7999999999999972      31.359999999999996      17.640000000000001
   263   1      9.7999999999999972                   33.32      15.679999999999998
   264   1      7.8399999999999963      31.359999999999996      19.599999999999998
   265   1      7.8399999999999963                   33.32      21.559999999999999
   266   1      9.7999999999999972      31.359999999999996      21.559999999999999
   267   1      9.7999999999999972                   33.32      19.599999999999998
   268   1      7.8399999999999963      31.359999999999996      23.519999999999992
   269   1      7.8399999999999963                   33.32      25.479999999999997
   270   1      9.7999999999999972      31.359999999999996      25.479999999999997
   271   1      9.7999999999999972                   33.32      23.519999999999992
   272   1      7.8399999999999963      31.359999999999996      27.439999999999998
   273   1      7.8399999999999963                   33.32      29.399999999999999
   274   1      9.7999999999999972      31.359999999999996      29.399999999999999
   275   1      9.7999999999999972                   33.32      27.439999999999998
   276   1      7.8399999999999963      31.359999999999996      31.359999999999996
   277   1      7.8399999999999963                   33.32                   33.32
   278   1      9.7999999999999972      31.359999999999996                   33.32
   279   1      9.7999999999999972                   33.32      31.359999999999996
   280   1      7.8399999999999963      31.359999999999996      35.280000000000001
   281   1      7.8399999999999963                   33.32      37.240000000000002
   282   1      9.7999999999999972      31.359999999999996      37.240000000000002
   283   1      9.7999999999999972                   33.32      35.280000000000001
   284   1      7.8399999999999963      31.359999999999996      39.199999999999996
   285   1      7.8399999999999963                   33.32      41.159999999999997
   286   1      9.7999999999999972      31.359999999999996      41.159999999999997
   287   1      9.7999999999999972                   33.32      39.199999999999996
   288   1      7.8399999999999963      31.359999999999996      43.119999999999997
   289   1      7.8399999999999963                   33.32      45.079999999999991
   290   1      9.7999999999999972      31.359999999999996      45.079999999999991
   291   1      9.7999999999999972                   33.32      43.119999999999997
   292   1      7.8399999999999963      31.359999999999996      47.039999999999992
   293   1      7.8399999999999963                   33.32                      49
   294   1      9.7999999999999972      31.359999999999996                      49
   295   1      9.7999999999999972                   33.32      47.039999999999992
   296   1      7.8399999999999963      31.359999999999996      50.959999999999994
   297   1      9.7999999999999972      31.359999999999996      52.919999999999995
   298   1      9.7999999999999972                   33.32      50.959999999999994
   299   1      9.7999999999999972                   33.32      54.879999999999995
   300   1      9.7999999999999972      35.280000000000001      17.640000000000001
   301   1      9.7999999999999972      37.240000000000002      15.679999999999998
   302   1      7.8399999999999963      35.280000000000001      19.599999999999998
   303   1      7.8399999999999963      37.240000000000002      21.559999999999999
   304   1      9.7999999999999972      35.280000000000001      21.559999999999999
   305   1      9.7999999999999972      37.240000000000002      19.599999999999998
   306   1      7.8399999999999963      35.280000000000001      23.519999999999992
   307   1      7.8399999999999963      37.240000000000002      25.479999999999997
   308   1      9.7999999999999972      35.280000000000001      25.479999999999997
   309   1      9.7999999999999972      37.240000000000002      23.519999999999992
   310   1      7.8399999999999963      35.280000000000001      27.439999999999998
   311   1      7.8399999999999963      37.240000000000002      29.399999999999999
   312   1      9.7999999999999972      35.280000000000001      29.399999999999999
   313   1      9.7999999999999972      37.240000000000002      27.439999999999998
   314   1      7.8399999999999963      35.280000000000001      31.359999999999996
   315   1      7.8399999999999963      37.240000000000002                   33.32
   316   1      9.7999999999999972      35.280000000000001                   33.32
   317   1      9.7999999999999972      37.240000000000002      31.359999999999996
   318   1      7.8399999999999963      35.280000000000001      35.280000000000001
   319   1      7.8399999999999963      37.240000000000002      37.240000000000002
   320   1      9.7999999999999972      35.280000000000001      37.240000000000002
   321   1      9.7999999999999972      37.240000000000002      35.280000000000001
   322   1      7.8399999999999963      35.280000000000001      39.199999999999996
   323   1      7.8399999999999963      37.240000000000002      41.159999999999997
   324   1      9.7999999999999972      35.280000000000001      41.159999999999997
   325   1      9.7999999999999972      37.240000000000002      39.199999999999996
   326   1      7.8399999999999963      35.280000000000001      43.119999999999997
   327   1      7.8399999999999963      37.240000000000002      45.079999999999991
   328   1      9.7999999999999972      35.280000000000001      45.079999999999991
   329   1      9.7999999999999972      37.240000000000002      43.119999999999997
   330   1      7.8399999999999963      35.280000000000001      47.039999999999992
   331   1      7.8399999999999963      37.240000000000002                      49
   332   1      9.7999999999999972      35.280000000000001                      49
   333   1      9.7999999999999972      37.240000000000002      47.039999999999992
   334   1      7.8399999999999963      35.280000000000001      50.959999999999994
   335   1      9.7999999999999972      35.280000000000001      52.919999999999995
   336   1      9.7999999999999972      37.240000000000002      50.959999999999994
   337   1      9.7999999999999972      37.240000000000002      54.879999999999995
   338   1      9.7999999999999972      39.199999999999996      17.640000000000001
   339   1      7.8399999999999963      39.199999999999996      19.599999999999998
   340   1      7.8399999999999963      41.159999999999997      21.559999999999999
   341   1      9.7999999999999972      39.199999999999996      21.559999999999999
   342   1      9.7999999999999972      41.159999999999997      19.599999999999998
   343   1      7.8399999999999963      39.199999999999996      23.519999999999992
   344   1      7.8399999999999963      41.159999999999997      25.479999999999997
   345   1      9.7999999999999972      39.199999999999996      25.479999999999997
   346   1      9.7999999999999972      41.159999999999997      23.519999999999992
   347   1      7.8399999999999963      39.199999999999996      27.439999999999998
   348   1      7.8399999999999963      41.159999999999997      29.399999999999999
   349   1      9.7999999999999972      39.199999999999996      29.399999999999999
   350   1      9.7999999999999972      41.159999999999997      27.439999999999998
   351   1      7.8399999999999963      39.199999999999996      31.359999999999996
   352   1      7.8399999999999963      41.159999999999997                   33.32
   353   1      9.7999999999999972      39.199999999999996                   33.32
   354   1      9.7999999999999972      41.159999999999997      31.359999999999996
   355   1      7.8399999999999963      39.199999999999996      35.280000000000001
   356   1      7.8399999999999963      41.159999999999997      37.240000000000002
   357   1      9.7999999999999972      39.199999999999996      37.240000000000002
   358   1      9.7999999999999972      41.159999999999997      35.280000000000001