model_files/CuNi/CuNi_30000/CuNi_543/CuNi_543_fcc_30079_temp.data (written by ASE) 

30079 	 atoms 
2  atom types
0.0                     110  xlo xhi
0.0                     110  ylo yhi
0.0                     110  zlo zhi


Atoms 

     1   1                       0      53.489999999999995      55.272999999999996
     2   1                       0      55.272999999999996      53.489999999999995
     3   1                       0      55.272999999999996      57.055999999999997
     4   1                       0      57.055999999999997      55.272999999999996
     5   1      3.5659999999999954      49.924000000000007      55.272999999999996
     6   1      1.7830000000000013      53.489999999999995      53.489999999999995
     7   1      3.5659999999999954      51.707000000000001      53.489999999999995
     8   1      3.5659999999999954      53.489999999999995      51.707000000000001
     9   1      1.7830000000000013      51.707000000000001      55.272999999999996
    10   1      1.7830000000000013      53.489999999999995      57.055999999999997
    11   1      3.5659999999999954      51.707000000000001      57.055999999999997
    12   1      3.5659999999999954      53.489999999999995      55.272999999999996
    13   1      3.5659999999999954      53.489999999999995      58.839000000000006
    14   1      3.5659999999999954      55.272999999999996      49.924000000000007
    15   1      1.7830000000000013      55.272999999999996      51.707000000000001
    16   1      1.7830000000000013      57.055999999999997      53.489999999999995
    17   1      3.5659999999999954      55.272999999999996      53.489999999999995
    18   1      3.5659999999999954      57.055999999999997      51.707000000000001
    19   1      1.7830000000000013      55.272999999999996      55.272999999999996
    20   1      1.7830000000000013      57.055999999999997      57.055999999999997
    21   1      3.5659999999999954      55.272999999999996      57.055999999999997
    22   1      3.5659999999999954      57.055999999999997      55.272999999999996
    23   1      1.7830000000000013      55.272999999999996      58.839000000000006
    24   1      3.5659999999999954      55.272999999999996      60.622000000000007
    25   1      3.5659999999999954      57.055999999999997      58.839000000000006
    26   1      3.5659999999999954      58.839000000000006      53.489999999999995
    27   1      1.7830000000000013      58.839000000000006      55.272999999999996
    28   1      3.5659999999999954      58.839000000000006      57.055999999999997
    29   1      3.5659999999999954      60.622000000000007      55.272999999999996
    30   1       7.131999999999997      46.358000000000004      55.272999999999996
    31   1      5.3489999999999958      49.924000000000007      53.489999999999995
    32   1       7.131999999999997      48.140999999999998      53.489999999999995
    33   1       7.131999999999997      49.924000000000007      51.707000000000001
    34   1      5.3489999999999958      48.140999999999998      55.272999999999996
    35   1      5.3489999999999958      49.924000000000007      57.055999999999997
    36   1       7.131999999999997      48.140999999999998      57.055999999999997
    37   1       7.131999999999997      49.924000000000007      55.272999999999996
    38   1       7.131999999999997      49.924000000000007      58.839000000000006
    39   1      5.3489999999999958      53.489999999999995      49.924000000000007
    40   1       7.131999999999997      51.707000000000001      49.924000000000007
    41   1       7.131999999999997      53.489999999999995      48.140999999999998
    42   1      5.3489999999999958      51.707000000000001      51.707000000000001
    43   1      5.3489999999999958      53.489999999999995      53.489999999999995
    44   1       7.131999999999997      51.707000000000001      53.489999999999995
    45   1       7.131999999999997      53.489999999999995      51.707000000000001
    46   1      5.3489999999999958      51.707000000000001      55.272999999999996
    47   1      5.3489999999999958      53.489999999999995      57.055999999999997
    48   1       7.131999999999997      51.707000000000001      57.055999999999997
    49   1       7.131999999999997      53.489999999999995      55.272999999999996
    50   1      5.3489999999999958      51.707000000000001      58.839000000000006
    51   1      5.3489999999999958      53.489999999999995      60.622000000000007
    52   1       7.131999999999997      51.707000000000001      60.622000000000007
    53   1       7.131999999999997      53.489999999999995      58.839000000000006
    54   1       7.131999999999997      53.489999999999995      62.405000000000001
    55   1       7.131999999999997      55.272999999999996      46.358000000000004
    56   1      5.3489999999999958      55.272999999999996      48.140999999999998
    57   1      5.3489999999999958      57.055999999999997      49.924000000000007
    58   1       7.131999999999997      55.272999999999996      49.924000000000007
    59   1       7.131999999999997      57.055999999999997      48.140999999999998
    60   1      5.3489999999999958      55.272999999999996      51.707000000000001
    61   1      5.3489999999999958      57.055999999999997      53.489999999999995
    62   1       7.131999999999997      55.272999999999996      53.489999999999995
    63   1       7.131999999999997      57.055999999999997      51.707000000000001
    64   1      5.3489999999999958      55.272999999999996      55.272999999999996
    65   1      5.3489999999999958      57.055999999999997      57.055999999999997
    66   1       7.131999999999997      55.272999999999996      57.055999999999997
    67   1       7.131999999999997      57.055999999999997      55.272999999999996
    68   1      5.3489999999999958      55.272999999999996      58.839000000000006
    69   1      5.3489999999999958      57.055999999999997      60.622000000000007
    70   1       7.131999999999997      55.272999999999996      60.622000000000007
    71   1       7.131999999999997      57.055999999999997      58.839000000000006
    72   1      5.3489999999999958      55.272999999999996      62.405000000000001
    73   1       7.131999999999997      55.272999999999996      64.187999999999988
    74   1       7.131999999999997      57.055999999999997      62.405000000000001
    75   1       7.131999999999997      58.839000000000006      49.924000000000007
    76   1      5.3489999999999958      58.839000000000006      51.707000000000001
    77   1      5.3489999999999958      60.622000000000007      53.489999999999995
    78   1       7.131999999999997      58.839000000000006      53.489999999999995
    79   1       7.131999999999997      60.622000000000007      51.707000000000001
    80   1      5.3489999999999958      58.839000000000006      55.272999999999996
    81   1      5.3489999999999958      60.622000000000007      57.055999999999997
    82   1       7.131999999999997      58.839000000000006      57.055999999999997
    83   1       7.131999999999997      60.622000000000007      55.272999999999996
    84   1      5.3489999999999958      58.839000000000006      58.839000000000006
    85   1       7.131999999999997      58.839000000000006      60.622000000000007
    86   1       7.131999999999997      60.622000000000007      58.839000000000006
    87   1       7.131999999999997      62.405000000000001      53.489999999999995
    88   1      5.3489999999999958      62.405000000000001      55.272999999999996
    89   1       7.131999999999997      62.405000000000001      57.055999999999997
    90   1       7.131999999999997      64.187999999999988      55.272999999999996
    91   1                  10.698      42.792000000000002      51.707000000000001
    92   1                  10.698      42.792000000000002      55.272999999999996
    93   1                  10.698      42.792000000000002      58.839000000000006
    94   1      8.9149999999999991      46.358000000000004      49.924000000000007
    95   1                  10.698      44.574999999999996      49.924000000000007
    96   1                  10.698      46.358000000000004      48.140999999999998
    97   1      8.9149999999999991      46.358000000000004      53.489999999999995
    98   1                  10.698      44.574999999999996      53.489999999999995
    99   1                  10.698      46.358000000000004      51.707000000000001
   100   1      8.9149999999999991      44.574999999999996      55.272999999999996
   101   1      8.9149999999999991      46.358000000000004      57.055999999999997
   102   1                  10.698      44.574999999999996      57.055999999999997
   103   1                  10.698      46.358000000000004      55.272999999999996
   104   1      8.9149999999999991      46.358000000000004      60.622000000000007
   105   1                  10.698      44.574999999999996      60.622000000000007
   106   1                  10.698      46.358000000000004      58.839000000000006
   107   1                  10.698      46.358000000000004      62.405000000000001
   108   1      8.9149999999999991      49.924000000000007      46.358000000000004
   109   1                  10.698      48.140999999999998      46.358000000000004
   110   1                  10.698      49.924000000000007      44.574999999999996
   111   1      8.9149999999999991      48.140999999999998      48.140999999999998
   112   1      8.9149999999999991      49.924000000000007      49.924000000000007
   113   1                  10.698      48.140999999999998      49.924000000000007
   114   1                  10.698      49.924000000000007      48.140999999999998
   115   1      8.9149999999999991      48.140999999999998      51.707000000000001
   116   1      8.9149999999999991      49.924000000000007      53.489999999999995
   117   1                  10.698      48.140999999999998      53.489999999999995
   118   1                  10.698      49.924000000000007      51.707000000000001
   119   1      8.9149999999999991      48.140999999999998      55.272999999999996
   120   1      8.9149999999999991      49.924000000000007      57.055999999999997
   121   1                  10.698      48.140999999999998      57.055999999999997
   122   1                  10.698      49.924000000000007      55.272999999999996
   123   1      8.9149999999999991      48.140999999999998      58.839000000000006
   124   1      8.9149999999999991      49.924000000000007      60.622000000000007
   125   1                  10.698      48.140999999999998      60.622000000000007
   126   1                  10.698      49.924000000000007      58.839000000000006
   127   1      8.9149999999999991      48.140999999999998      62.405000000000001
   128   1      8.9149999999999991      49.924000000000007      64.187999999999988
   129   1                  10.698      48.140999999999998      64.187999999999988
   130   1                  10.698      49.924000000000007      62.405000000000001
   131   1                  10.698      49.924000000000007      65.971000000000004
   132   1                  10.698      51.707000000000001      42.792000000000002
   133   1      8.9149999999999991      53.489999999999995      46.358000000000004
   134   1                  10.698      51.707000000000001      46.358000000000004
   135   1                  10.698      53.489999999999995      44.574999999999996
   136   1      8.9149999999999991      51.707000000000001      48.140999999999998
   137   1      8.9149999999999991      53.489999999999995      49.924000000000007
   138   1                  10.698      51.707000000000001      49.924000000000007
   139   1                  10.698      53.489999999999995      48.140999999999998
   140   1      8.9149999999999991      51.707000000000001      51.707000000000001
   141   1      8.9149999999999991      53.489999999999995      53.489999999999995
   142   1                  10.698      51.707000000000001      53.489999999999995
   143   1                  10.698      53.489999999999995      51.707000000000001
   144   1      8.9149999999999991      51.707000000000001      55.272999999999996
   145   1      8.9149999999999991      53.489999999999995      57.055999999999997
   146   1                  10.698      51.707000000000001      57.055999999999997
   147   1                  10.698      53.489999999999995      55.272999999999996
   148   1      8.9149999999999991      51.707000000000001      58.839000000000006
   149   1      8.9149999999999991      53.489999999999995      60.622000000000007
   150   1                  10.698      51.707000000000001      60.622000000000007
   151   1                  10.698      53.489999999999995      58.839000000000006
   152   1      8.9149999999999991      51.707000000000001      62.405000000000001
   153   1      8.9149999999999991      53.489999999999995      64.187999999999988
   154   1                  10.698      51.707000000000001      64.187999999999988
   155   1                  10.698      53.489999999999995      62.405000000000001
   156   1                  10.698      51.707000000000001      67.754000000000005
   157   1                  10.698      53.489999999999995      65.971000000000004
   158   1                  10.698      55.272999999999996      42.792000000000002
   159   1      8.9149999999999991      55.272999999999996      44.574999999999996
   160   1      8.9149999999999991      57.055999999999997      46.358000000000004
   161   1                  10.698      55.272999999999996      46.358000000000004
   162   1                  10.698      57.055999999999997      44.574999999999996
   163   1      8.9149999999999991      55.272999999999996      48.140999999999998
   164   1      8.9149999999999991      57.055999999999997      49.924000000000007
   165   1                  10.698      55.272999999999996      49.924000000000007
   166   1                  10.698      57.055999999999997      48.140999999999998
   167   1      8.9149999999999991      55.272999999999996      51.707000000000001
   168   1      8.9149999999999991      57.055999999999997      53.489999999999995
   169   1                  10.698      55.272999999999996      53.489999999999995
   170   1                  10.698      57.055999999999997      51.707000000000001
   171   1      8.9149999999999991      55.272999999999996      55.272999999999996
   172   1      8.9149999999999991      57.055999999999997      57.055999999999997
   173   1                  10.698      55.272999999999996      57.055999999999997
   174   1                  10.698      57.055999999999997      55.272999999999996
   175   1      8.9149999999999991      55.272999999999996      58.839000000000006
   176   1      8.9149999999999991      57.055999999999997      60.622000000000007
   177   1                  10.698      55.272999999999996      60.622000000000007
   178   1                  10.698      57.055999999999997      58.839000000000006
   179   1      8.9149999999999991      55.272999999999996      62.405000000000001
   180   1      8.9149999999999991      57.055999999999997      64.187999999999988
   181   1                  10.698      55.272999999999996      64.187999999999988
   182   1                  10.698      57.055999999999997      62.405000000000001
   183   1      8.9149999999999991      55.272999999999996      65.971000000000004
   184   1                  10.698      55.272999999999996      67.754000000000005
   185   1                  10.698      57.055999999999997      65.971000000000004
   186   1                  10.698      58.839000000000006      42.792000000000002
   187   1      8.9149999999999991      60.622000000000007      46.358000000000004
   188   1                  10.698      58.839000000000006      46.358000000000004
   189   1                  10.698      60.622000000000007      44.574999999999996
   190   1      8.9149999999999991      58.839000000000006      48.140999999999998
   191   1      8.9149999999999991      60.622000000000007      49.924000000000007
   192   1                  10.698      58.839000000000006      49.924000000000007
   193   1                  10.698      60.622000000000007      48.140999999999998
   194   1      8.9149999999999991      58.839000000000006      51.707000000000001
   195   1      8.9149999999999991      60.622000000000007      53.489999999999995
   196   1                  10.698      58.839000000000006      53.489999999999995
   197   1                  10.698      60.622000000000007      51.707000000000001
   198   1      8.9149999999999991      58.839000000000006      55.272999999999996
   199   1      8.9149999999999991      60.622000000000007      57.055999999999997
   200   1                  10.698      58.839000000000006      57.055999999999997
   201   1                  10.698      60.622000000000007      55.272999999999996
   202   1      8.9149999999999991      58.839000000000006      58.839000000000006
   203   1      8.9149999999999991      60.622000000000007      60.622000000000007
   204   1                  10.698      58.839000000000006      60.622000000000007
   205   1                  10.698      60.622000000000007      58.839000000000006
   206   1      8.9149999999999991      58.839000000000006      62.405000000000001
   207   1      8.9149999999999991      60.622000000000007      64.187999999999988
   208   1                  10.698      58.839000000000006      64.187999999999988
   209   1                  10.698      60.622000000000007      62.405000000000001
   210   1                  10.698      58.839000000000006      67.754000000000005
   211   1                  10.698      60.622000000000007      65.971000000000004
   212   1                  10.698      62.405000000000001      46.358000000000004
   213   1      8.9149999999999991      62.405000000000001      48.140999999999998
   214   1      8.9149999999999991      64.187999999999988      49.924000000000007
   215   1                  10.698      62.405000000000001      49.924000000000007
   216   1                  10.698      64.187999999999988      48.140999999999998
   217   1      8.9149999999999991      62.405000000000001      51.707000000000001
   218   1      8.9149999999999991      64.187999999999988      53.489999999999995
   219   1                  10.698      62.405000000000001      53.489999999999995
   220   1                  10.698      64.187999999999988      51.707000000000001
   221   1      8.9149999999999991      62.405000000000001      55.272999999999996
   222   1      8.9149999999999991      64.187999999999988      57.055999999999997
   223   1                  10.698      62.405000000000001      57.055999999999997
   224   1                  10.698      64.187999999999988      55.272999999999996
   225   1      8.9149999999999991      62.405000000000001      58.839000000000006
   226   1      8.9149999999999991      64.187999999999988      60.622000000000007
   227   1                  10.698      62.405000000000001      60.622000000000007
   228   1                  10.698      64.187999999999988      58.839000000000006
   229   1      8.9149999999999991      62.405000000000001      62.405000000000001
   230   1                  10.698      62.405000000000001      64.187999999999988
   231   1                  10.698      64.187999999999988      62.405000000000001
   232   1                  10.698      65.971000000000004      49.924000000000007
   233   1                  10.698      65.971000000000004      53.489999999999995
   234   1                  10.698      67.754000000000005      51.707000000000001
   235   1      8.9149999999999991      65.971000000000004      55.272999999999996
   236   1                  10.698      65.971000000000004      57.055999999999997
   237   1                  10.698      67.754000000000005      55.272999999999996
   238   1                  10.698      65.971000000000004      60.622000000000007
   239   1                  10.698      67.754000000000005      58.839000000000006
   240   1      14.264000000000003      35.659999999999997      55.272999999999996
   241   1      12.481000000000002      39.226000000000006      53.489999999999995
   242   1      14.264000000000003      37.443000000000005      53.489999999999995
   243   1      14.264000000000003      39.226000000000006      51.707000000000001
   244   1      12.481000000000002      39.226000000000006      57.055999999999997
   245   1      14.264000000000003      37.443000000000005      57.055999999999997
   246   1      14.264000000000003      39.226000000000006      55.272999999999996
   247   1      14.264000000000003      39.226000000000006      58.839000000000006
   248   1      12.481000000000002      42.792000000000002      49.924000000000007
   249   1      14.264000000000003      41.008999999999993      49.924000000000007
   250   1      14.264000000000003      42.792000000000002      48.140999999999998
   251   1      12.481000000000002      41.008999999999993      51.707000000000001
   252   1      12.481000000000002      42.792000000000002      53.489999999999995
   253   1      14.264000000000003      41.008999999999993      53.489999999999995
   254   1      14.264000000000003      42.792000000000002      51.707000000000001
   255   1      12.481000000000002      41.008999999999993      55.272999999999996
   256   1      12.481000000000002      42.792000000000002      57.055999999999997
   257   1      14.264000000000003      41.008999999999993      57.055999999999997
   258   1      14.264000000000003      42.792000000000002      55.272999999999996
   259   1      12.481000000000002      41.008999999999993      58.839000000000006
   260   1      12.481000000000002      42.792000000000002      60.622000000000007
   261   1      14.264000000000003      41.008999999999993      60.622000000000007
   262   1      14.264000000000003      42.792000000000002      58.839000000000006
   263   1      14.264000000000003      42.792000000000002      62.405000000000001
   264   1      12.481000000000002      46.358000000000004      46.358000000000004
   265   1      14.264000000000003      44.574999999999996      46.358000000000004
   266   1      14.264000000000003      46.358000000000004      44.574999999999996
   267   1      12.481000000000002      44.574999999999996      48.140999999999998
   268   1      12.481000000000002      46.358000000000004      49.924000000000007
   269   1      14.264000000000003      44.574999999999996      49.924000000000007
   270   1      14.264000000000003      46.358000000000004      48.140999999999998
   271   1      12.481000000000002      44.574999999999996      51.707000000000001
   272   1      12.481000000000002      46.358000000000004      53.489999999999995
   273   1      14.264000000000003      44.574999999999996      53.489999999999995
   274   1      14.264000000000003      46.358000000000004      51.707000000000001
   275   1      12.481000000000002      44.574999999999996      55.272999999999996
   276   1      12.481000000000002      46.358000000000004      57.055999999999997
   277   1      14.264000000000003      44.574999999999996      57.055999999999997
   278   1      14.264000000000003      46.358000000000004      55.272999999999996
   279   1      12.481000000000002      44.574999999999996      58.839000000000006
   280   1      12.481000000000002      46.358000000000004      60.622000000000007
   281   1      14.264000000000003      44.574999999999996      60.622000000000007
   282   1      14.264000000000003      46.358000000000004      58.839000000000006
   283   1      12.481000000000002      44.574999999999996      62.405000000000001
   284   1      12.481000000000002      46.358000000000004      64.187999999999988
   285   1      14.264000000000003      44.574999999999996      64.187999999999988
   286   1      14.264000000000003      46.358000000000004      62.405000000000001
   287   1      14.264000000000003      46.358000000000004      65.971000000000004
   288   1      12.481000000000002      49.924000000000007      42.792000000000002
   289   1      14.264000000000003      48.140999999999998      42.792000000000002
   290   1      14.264000000000003      49.924000000000007      41.008999999999993
   291   1      12.481000000000002      48.140999999999998      44.574999999999996
   292   1      12.481000000000002      49.924000000000007      46.358000000000004
   293   1      14.264000000000003      48.140999999999998      46.358000000000004
   294   1      14.264000000000003      49.924000000000007      44.574999999999996
   295   1      12.481000000000002      48.140999999999998      48.140999999999998
   296   1      12.481000000000002      49.924000000000007      49.924000000000007
   297   1      14.264000000000003      48.140999999999998      49.924000000000007
   298   1      14.264000000000003      49.924000000000007      48.140999999999998
   299   1      12.481000000000002      48.140999999999998      51.707000000000001
   300   1      12.481000000000002      49.924000000000007      53.489999999999995
   301   1      14.264000000000003      48.140999999999998      53.489999999999995
   302   1      14.264000000000003      49.924000000000007      51.707000000000001
   303   1      12.481000000000002      48.140999999999998      55.272999999999996
   304   1      12.481000000000002      49.924000000000007      57.055999999999997
   305   1      14.264000000000003      48.140999999999998      57.055999999999997
   306   1      14.264000000000003      49.924000000000007      55.272999999999996
   307   1      12.481000000000002      48.140999999999998      58.839000000000006
   308   1      12.481000000000002      49.924000000000007      60.622000000000007
   309   1      14.264000000000003      48.140999999999998      60.622000000000007
   310   1      14.264000000000003      49.924000000000007      58.839000000000006
   311   1      12.481000000000002      48.140999999999998      62.405000000000001
   312   1      12.481000000000002      49.924000000000007      64.187999999999988
   313   1      14.264000000000003      48.140999999999998      64.187999999999988
   314   1      14.264000000000003      49.924000000000007      62.405000000000001
   315   1      12.481000000000002      48.140999999999998      65.971000000000004
   316   1      12.481000000000002      49.924000000000007      67.754000000000005
   317   1      14.264000000000003      48.140999999999998      67.754000000000005
   318   1      14.264000000000003      49.924000000000007      65.971000000000004
   319   1      14.264000000000003      49.924000000000007      69.537000000000006
   320   1      12.481000000000002      53.489999999999995      39.226000000000006
   321   1      14.264000000000003      51.707000000000001      39.226000000000006
   322   1      14.264000000000003      53.489999999999995      37.443000000000005
   323   1      12.481000000000002      51.707000000000001      41.008999999999993
   324   1      12.481000000000002      53.489999999999995      42.792000000000002
   325   1      14.264000000000003      51.707000000000001      42.792000000000002
   326   1      14.264000000000003      53.489999999999995      41.008999999999993
   327   1      12.481000000000002      51.707000000000001      44.574999999999996
   328   1      12.481000000000002      53.489999999999995      46.358000000000004
   329   1      14.264000000000003      51.707000000000001      46.358000000000004
   330   1      14.264000000000003      53.489999999999995      44.574999999999996
   331   1      12.481000000000002      51.707000000000001      48.140999999999998
   332   1      12.481000000000002      53.489999999999995      49.924000000000007
   333   1      14.264000000000003      51.707000000000001      49.924000000000007
   334   1      14.264000000000003      53.489999999999995      48.140999999999998
   335   1      12.481000000000002      51.707000000000001      51.707000000000001
   336   1      12.481000000000002      53.489999999999995      53.489999999999995
   337   1      14.264000000000003      51.707000000000001      53.489999999999995
   338   1      14.264000000000003      53.489999999999995      51.707000000000001
   339   1      12.481000000000002      51.707000000000001      55.272999999999996
   340   1      12.481000000000002      53.489999999999995      57.055999999999997
   341   1      14.264000000000003      51.707000000000001      57.055999999999997
   342   1      14.264000000000003      53.489999999999995      55.272999999999996
   343   1      12.481000000000002      51.707000000000001      58.839000000000006
   344   1      12.481000000000002      53.489999999999995      60.622000000000007
   345   1      14.264000000000003      51.707000000000001      60.622000000000007
   346   1      14.264000000000003      53.489999999999995      58.839000000000006
   347   1      12.481000000000002      51.707000000000001      62.405000000000001
   348   1      12.481000000000002      53.489999999999995      64.187999999999988
   349   1      14.264000000000003      51.707000000000001      64.187999999999988
   350   1      14.264000000000003      53.489999999999995      62.405000000000001
   351   1      12.481000000000002      51.707000000000001      65.971000000000004
   352   1      12.481000000000002      53.489999999999995      67.754000000000005
   353   1      14.264000000000003      51.707000000000001      67.754000000000005
   354   1      14.264000000000003      53.489999999999995      65.971000000000004
   355   1      12.481000000000002      51.707000000000001      69.537000000000006
   356   1      12.481000000000002      53.489999999999995      71.319999999999993
   357   1      14.264000000000003      51.707000000000001      71.319999999999993
   358   1      14.264000000000003      53.489999999999995      69.537000000000006