model_files/PdCu/PdCu_30000/PdCu_221/PdCu_221_fcc_29329_temp.data (written by ASE) 

29329 	 atoms 
2  atom types
0.0                     120  xlo xhi
0.0                     120  ylo yhi
0.0                     120  zlo zhi


Atoms 

     1   1      1.8875000000000099       58.51250000000001      60.400000000000006
     2   1      1.8875000000000099      60.400000000000006       58.51250000000001
     3   1  7.1054273576010019e-15      60.400000000000006      60.400000000000006
     4   1      1.8875000000000099      60.400000000000006      62.287500000000009
     5   1      1.8875000000000099      62.287500000000009      60.400000000000006
     6   1      5.6625000000000085      54.737500000000011      56.625000000000007
     7   1      5.6625000000000085      54.737500000000011      60.400000000000006
     8   1      5.6625000000000085      54.737500000000011      64.175000000000011
     9   1      5.6625000000000085      56.625000000000007      54.737500000000011
    10   1      3.7750000000000057      56.625000000000007      56.625000000000007
    11   1      3.7750000000000057       58.51250000000001       58.51250000000001
    12   1      5.6625000000000085      56.625000000000007       58.51250000000001
    13   1      5.6625000000000085       58.51250000000001      56.625000000000007
    14   1      3.7750000000000057      56.625000000000007      60.400000000000006
    15   1      3.7750000000000057       58.51250000000001      62.287500000000009
    16   1      5.6625000000000085      56.625000000000007      62.287500000000009
    17   1      5.6625000000000085       58.51250000000001      60.400000000000006
    18   1      3.7750000000000057      56.625000000000007      64.175000000000011
    19   1      5.6625000000000085      56.625000000000007      66.062500000000014
    20   1      5.6625000000000085       58.51250000000001      64.175000000000011
    21   1      5.6625000000000085      60.400000000000006      54.737500000000011
    22   1      3.7750000000000057      60.400000000000006      56.625000000000007
    23   1      3.7750000000000057      62.287500000000009       58.51250000000001
    24   1      5.6625000000000085      60.400000000000006       58.51250000000001
    25   1      5.6625000000000085      62.287500000000009      56.625000000000007
    26   1      3.7750000000000057      60.400000000000006      60.400000000000006
    27   1      3.7750000000000057      62.287500000000009      62.287500000000009
    28   1      5.6625000000000085      60.400000000000006      62.287500000000009
    29   1      5.6625000000000085      62.287500000000009      60.400000000000006
    30   1      3.7750000000000057      60.400000000000006      64.175000000000011
    31   1      5.6625000000000085      60.400000000000006      66.062500000000014
    32   1      5.6625000000000085      62.287500000000009      64.175000000000011
    33   1      5.6625000000000085      64.175000000000011      54.737500000000011
    34   1      3.7750000000000057      64.175000000000011      56.625000000000007
    35   1      5.6625000000000085      64.175000000000011       58.51250000000001
    36   1      5.6625000000000085      66.062500000000014      56.625000000000007
    37   1      3.7750000000000057      64.175000000000011      60.400000000000006
    38   1      5.6625000000000085      64.175000000000011      62.287500000000009
    39   1      5.6625000000000085      66.062500000000014      60.400000000000006
    40   1      3.7750000000000057      64.175000000000011      64.175000000000011
    41   1      5.6625000000000085      64.175000000000011      66.062500000000014
    42   1      5.6625000000000085      66.062500000000014      64.175000000000011
    43   1      9.4375000000000071      50.962500000000013      56.625000000000007
    44   1      9.4375000000000071      50.962500000000013      60.400000000000006
    45   1      9.4375000000000071      50.962500000000013      64.175000000000011
    46   1      7.5500000000000114      54.737500000000011      54.737500000000011
    47   1      9.4375000000000071      52.850000000000009      54.737500000000011
    48   1      9.4375000000000071      54.737500000000011      52.850000000000009
    49   1      7.5500000000000114      52.850000000000009      56.625000000000007
    50   1      7.5500000000000114      54.737500000000011       58.51250000000001
    51   1      9.4375000000000071      52.850000000000009       58.51250000000001
    52   1      9.4375000000000071      54.737500000000011      56.625000000000007
    53   1      7.5500000000000114      52.850000000000009      60.400000000000006
    54   1      7.5500000000000114      54.737500000000011      62.287500000000009
    55   1      9.4375000000000071      52.850000000000009      62.287500000000009
    56   1      9.4375000000000071      54.737500000000011      60.400000000000006
    57   1      7.5500000000000114      52.850000000000009      64.175000000000011
    58   1      7.5500000000000114      54.737500000000011      66.062500000000014
    59   1      9.4375000000000071      52.850000000000009      66.062500000000014
    60   1      9.4375000000000071      54.737500000000011      64.175000000000011
    61   1      9.4375000000000071      54.737500000000011      67.950000000000003
    62   1      9.4375000000000071      56.625000000000007      50.962500000000013
    63   1      7.5500000000000114      56.625000000000007      52.850000000000009
    64   1      7.5500000000000114       58.51250000000001      54.737500000000011
    65   1      9.4375000000000071      56.625000000000007      54.737500000000011
    66   1      9.4375000000000071       58.51250000000001      52.850000000000009
    67   1      7.5500000000000114      56.625000000000007      56.625000000000007
    68   1      7.5500000000000114       58.51250000000001       58.51250000000001
    69   1      9.4375000000000071      56.625000000000007       58.51250000000001
    70   1      9.4375000000000071       58.51250000000001      56.625000000000007
    71   1      7.5500000000000114      56.625000000000007      60.400000000000006
    72   1      7.5500000000000114       58.51250000000001      62.287500000000009
    73   1      9.4375000000000071      56.625000000000007      62.287500000000009
    74   1      9.4375000000000071       58.51250000000001      60.400000000000006
    75   1      7.5500000000000114      56.625000000000007      64.175000000000011
    76   1      7.5500000000000114       58.51250000000001      66.062500000000014
    77   1      9.4375000000000071      56.625000000000007      66.062500000000014
    78   1      9.4375000000000071       58.51250000000001      64.175000000000011
    79   1      7.5500000000000114      56.625000000000007      67.950000000000003
    80   1      9.4375000000000071      56.625000000000007      69.837500000000006
    81   1      9.4375000000000071       58.51250000000001      67.950000000000003
    82   1      9.4375000000000071      60.400000000000006      50.962500000000013
    83   1      7.5500000000000114      60.400000000000006      52.850000000000009
    84   1      7.5500000000000114      62.287500000000009      54.737500000000011
    85   1      9.4375000000000071      60.400000000000006      54.737500000000011
    86   1      9.4375000000000071      62.287500000000009      52.850000000000009
    87   1      7.5500000000000114      60.400000000000006      56.625000000000007
    88   1      7.5500000000000114      62.287500000000009       58.51250000000001
    89   1      9.4375000000000071      60.400000000000006       58.51250000000001
    90   1      9.4375000000000071      62.287500000000009      56.625000000000007
    91   1      7.5500000000000114      60.400000000000006      60.400000000000006
    92   1      7.5500000000000114      62.287500000000009      62.287500000000009
    93   1      9.4375000000000071      60.400000000000006      62.287500000000009
    94   1      9.4375000000000071      62.287500000000009      60.400000000000006
    95   1      7.5500000000000114      60.400000000000006      64.175000000000011
    96   1      7.5500000000000114      62.287500000000009      66.062500000000014
    97   1      9.4375000000000071      60.400000000000006      66.062500000000014
    98   1      9.4375000000000071      62.287500000000009      64.175000000000011
    99   1      7.5500000000000114      60.400000000000006      67.950000000000003
   100   1      9.4375000000000071      60.400000000000006      69.837500000000006
   101   1      9.4375000000000071      62.287500000000009      67.950000000000003
   102   1      9.4375000000000071      64.175000000000011      50.962500000000013
   103   1      7.5500000000000114      64.175000000000011      52.850000000000009
   104   1      7.5500000000000114      66.062500000000014      54.737500000000011
   105   1      9.4375000000000071      64.175000000000011      54.737500000000011
   106   1      9.4375000000000071      66.062500000000014      52.850000000000009
   107   1      7.5500000000000114      64.175000000000011      56.625000000000007
   108   1      7.5500000000000114      66.062500000000014       58.51250000000001
   109   1      9.4375000000000071      64.175000000000011       58.51250000000001
   110   1      9.4375000000000071      66.062500000000014      56.625000000000007
   111   1      7.5500000000000114      64.175000000000011      60.400000000000006
   112   1      7.5500000000000114      66.062500000000014      62.287500000000009
   113   1      9.4375000000000071      64.175000000000011      62.287500000000009
   114   1      9.4375000000000071      66.062500000000014      60.400000000000006
   115   1      7.5500000000000114      64.175000000000011      64.175000000000011
   116   1      7.5500000000000114      66.062500000000014      66.062500000000014
   117   1      9.4375000000000071      64.175000000000011      66.062500000000014
   118   1      9.4375000000000071      66.062500000000014      64.175000000000011
   119   1      7.5500000000000114      64.175000000000011      67.950000000000003
   120   1      9.4375000000000071      64.175000000000011      69.837500000000006
   121   1      9.4375000000000071      66.062500000000014      67.950000000000003
   122   1      9.4375000000000071      67.950000000000003      54.737500000000011
   123   1      7.5500000000000114      67.950000000000003      56.625000000000007
   124   1      9.4375000000000071      67.950000000000003       58.51250000000001
   125   1      9.4375000000000071      69.837500000000006      56.625000000000007
   126   1      7.5500000000000114      67.950000000000003      60.400000000000006
   127   1      9.4375000000000071      67.950000000000003      62.287500000000009
   128   1      9.4375000000000071      69.837500000000006      60.400000000000006
   129   1      7.5500000000000114      67.950000000000003      64.175000000000011
   130   1      9.4375000000000071      67.950000000000003      66.062500000000014
   131   1      9.4375000000000071      69.837500000000006      64.175000000000011
   132   1      13.212500000000006      47.187500000000007      56.625000000000007
   133   1      13.212500000000006      47.187500000000007      60.400000000000006
   134   1      13.212500000000006      47.187500000000007      64.175000000000011
   135   1       11.32500000000001      50.962500000000013      54.737500000000011
   136   1      13.212500000000006       49.07500000000001      54.737500000000011
   137   1      13.212500000000006      50.962500000000013      52.850000000000009
   138   1       11.32500000000001       49.07500000000001      56.625000000000007
   139   1       11.32500000000001      50.962500000000013       58.51250000000001
   140   1      13.212500000000006       49.07500000000001       58.51250000000001
   141   1      13.212500000000006      50.962500000000013      56.625000000000007
   142   1       11.32500000000001       49.07500000000001      60.400000000000006
   143   1       11.32500000000001      50.962500000000013      62.287500000000009
   144   1      13.212500000000006       49.07500000000001      62.287500000000009
   145   1      13.212500000000006      50.962500000000013      60.400000000000006
   146   1       11.32500000000001       49.07500000000001      64.175000000000011
   147   1       11.32500000000001      50.962500000000013      66.062500000000014
   148   1      13.212500000000006       49.07500000000001      66.062500000000014
   149   1      13.212500000000006      50.962500000000013      64.175000000000011
   150   1      13.212500000000006      50.962500000000013      67.950000000000003
   151   1       11.32500000000001      54.737500000000011      50.962500000000013
   152   1      13.212500000000006      52.850000000000009      50.962500000000013
   153   1      13.212500000000006      54.737500000000011       49.07500000000001
   154   1       11.32500000000001      52.850000000000009      52.850000000000009
   155   1       11.32500000000001      54.737500000000011      54.737500000000011
   156   1      13.212500000000006      52.850000000000009      54.737500000000011
   157   1      13.212500000000006      54.737500000000011      52.850000000000009
   158   1       11.32500000000001      52.850000000000009      56.625000000000007
   159   1       11.32500000000001      54.737500000000011       58.51250000000001
   160   1      13.212500000000006      52.850000000000009       58.51250000000001
   161   1      13.212500000000006      54.737500000000011      56.625000000000007
   162   1       11.32500000000001      52.850000000000009      60.400000000000006
   163   1       11.32500000000001      54.737500000000011      62.287500000000009
   164   1      13.212500000000006      52.850000000000009      62.287500000000009
   165   1      13.212500000000006      54.737500000000011      60.400000000000006
   166   1       11.32500000000001      52.850000000000009      64.175000000000011
   167   1       11.32500000000001      54.737500000000011      66.062500000000014
   168   1      13.212500000000006      52.850000000000009      66.062500000000014
   169   1      13.212500000000006      54.737500000000011      64.175000000000011
   170   1       11.32500000000001      52.850000000000009      67.950000000000003
   171   1       11.32500000000001      54.737500000000011      69.837500000000006
   172   1      13.212500000000006      52.850000000000009      69.837500000000006
   173   1      13.212500000000006      54.737500000000011      67.950000000000003
   174   1      13.212500000000006      54.737500000000011      71.725000000000009
   175   1      13.212500000000006      56.625000000000007      47.187500000000007
   176   1       11.32500000000001      56.625000000000007       49.07500000000001
   177   1       11.32500000000001       58.51250000000001      50.962500000000013
   178   1      13.212500000000006      56.625000000000007      50.962500000000013
   179   1      13.212500000000006       58.51250000000001       49.07500000000001
   180   1       11.32500000000001      56.625000000000007      52.850000000000009
   181   1       11.32500000000001       58.51250000000001      54.737500000000011
   182   1      13.212500000000006      56.625000000000007      54.737500000000011
   183   1      13.212500000000006       58.51250000000001      52.850000000000009
   184   1       11.32500000000001      56.625000000000007      56.625000000000007
   185   1       11.32500000000001       58.51250000000001       58.51250000000001
   186   1      13.212500000000006      56.625000000000007       58.51250000000001
   187   1      13.212500000000006       58.51250000000001      56.625000000000007
   188   1       11.32500000000001      56.625000000000007      60.400000000000006
   189   1       11.32500000000001       58.51250000000001      62.287500000000009
   190   1      13.212500000000006      56.625000000000007      62.287500000000009
   191   1      13.212500000000006       58.51250000000001      60.400000000000006
   192   1       11.32500000000001      56.625000000000007      64.175000000000011
   193   1       11.32500000000001       58.51250000000001      66.062500000000014
   194   1      13.212500000000006      56.625000000000007      66.062500000000014
   195   1      13.212500000000006       58.51250000000001      64.175000000000011
   196   1       11.32500000000001      56.625000000000007      67.950000000000003
   197   1       11.32500000000001       58.51250000000001      69.837500000000006
   198   1      13.212500000000006      56.625000000000007      69.837500000000006
   199   1      13.212500000000006       58.51250000000001      67.950000000000003
   200   1       11.32500000000001      56.625000000000007      71.725000000000009
   201   1      13.212500000000006      56.625000000000007      73.612500000000011
   202   1      13.212500000000006       58.51250000000001      71.725000000000009
   203   1      13.212500000000006      60.400000000000006      47.187500000000007
   204   1       11.32500000000001      60.400000000000006       49.07500000000001
   205   1       11.32500000000001      62.287500000000009      50.962500000000013
   206   1      13.212500000000006      60.400000000000006      50.962500000000013
   207   1      13.212500000000006      62.287500000000009       49.07500000000001
   208   1       11.32500000000001      60.400000000000006      52.850000000000009
   209   1       11.32500000000001      62.287500000000009      54.737500000000011
   210   1      13.212500000000006      60.400000000000006      54.737500000000011
   211   1      13.212500000000006      62.287500000000009      52.850000000000009
   212   1       11.32500000000001      60.400000000000006      56.625000000000007
   213   1       11.32500000000001      62.287500000000009       58.51250000000001
   214   1      13.212500000000006      60.400000000000006       58.51250000000001
   215   1      13.212500000000006      62.287500000000009      56.625000000000007
   216   1       11.32500000000001      60.400000000000006      60.400000000000006
   217   1       11.32500000000001      62.287500000000009      62.287500000000009
   218   1      13.212500000000006      60.400000000000006      62.287500000000009
   219   1      13.212500000000006      62.287500000000009      60.400000000000006
   220   1       11.32500000000001      60.400000000000006      64.175000000000011
   221   1       11.32500000000001      62.287500000000009      66.062500000000014
   222   1      13.212500000000006      60.400000000000006      66.062500000000014
   223   1      13.212500000000006      62.287500000000009      64.175000000000011
   224   1       11.32500000000001      60.400000000000006      67.950000000000003
   225   1       11.32500000000001      62.287500000000009      69.837500000000006
   226   1      13.212500000000006      60.400000000000006      69.837500000000006
   227   1      13.212500000000006      62.287500000000009      67.950000000000003
   228   1       11.32500000000001      60.400000000000006      71.725000000000009
   229   1      13.212500000000006      60.400000000000006      73.612500000000011
   230   1      13.212500000000006      62.287500000000009      71.725000000000009
   231   1      13.212500000000006      64.175000000000011      47.187500000000007
   232   1       11.32500000000001      64.175000000000011       49.07500000000001
   233   1       11.32500000000001      66.062500000000014      50.962500000000013
   234   1      13.212500000000006      64.175000000000011      50.962500000000013
   235   1      13.212500000000006      66.062500000000014       49.07500000000001
   236   1       11.32500000000001      64.175000000000011      52.850000000000009
   237   1       11.32500000000001      66.062500000000014      54.737500000000011
   238   1      13.212500000000006      64.175000000000011      54.737500000000011
   239   1      13.212500000000006      66.062500000000014      52.850000000000009
   240   1       11.32500000000001      64.175000000000011      56.625000000000007
   241   1       11.32500000000001      66.062500000000014       58.51250000000001
   242   1      13.212500000000006      64.175000000000011       58.51250000000001
   243   1      13.212500000000006      66.062500000000014      56.625000000000007
   244   1       11.32500000000001      64.175000000000011      60.400000000000006
   245   1       11.32500000000001      66.062500000000014      62.287500000000009
   246   1      13.212500000000006      64.175000000000011      62.287500000000009
   247   1      13.212500000000006      66.062500000000014      60.400000000000006
   248   1       11.32500000000001      64.175000000000011      64.175000000000011
   249   1       11.32500000000001      66.062500000000014      66.062500000000014
   250   1      13.212500000000006      64.175000000000011      66.062500000000014
   251   1      13.212500000000006      66.062500000000014      64.175000000000011
   252   1       11.32500000000001      64.175000000000011      67.950000000000003
   253   1       11.32500000000001      66.062500000000014      69.837500000000006
   254   1      13.212500000000006      64.175000000000011      69.837500000000006
   255   1      13.212500000000006      66.062500000000014      67.950000000000003
   256   1       11.32500000000001      64.175000000000011      71.725000000000009
   257   1      13.212500000000006      64.175000000000011      73.612500000000011
   258   1      13.212500000000006      66.062500000000014      71.725000000000009
   259   1      13.212500000000006      67.950000000000003      50.962500000000013
   260   1       11.32500000000001      67.950000000000003      52.850000000000009
   261   1       11.32500000000001      69.837500000000006      54.737500000000011
   262   1      13.212500000000006      67.950000000000003      54.737500000000011
   263   1      13.212500000000006      69.837500000000006      52.850000000000009
   264   1       11.32500000000001      67.950000000000003      56.625000000000007
   265   1       11.32500000000001      69.837500000000006       58.51250000000001
   266   1      13.212500000000006      67.950000000000003       58.51250000000001
   267   1      13.212500000000006      69.837500000000006      56.625000000000007
   268   1       11.32500000000001      67.950000000000003      60.400000000000006
   269   1       11.32500000000001      69.837500000000006      62.287500000000009
   270   1      13.212500000000006      67.950000000000003      62.287500000000009
   271   1      13.212500000000006      69.837500000000006      60.400000000000006
   272   1       11.32500000000001      67.950000000000003      64.175000000000011
   273   1       11.32500000000001      69.837500000000006      66.062500000000014
   274   1      13.212500000000006      67.950000000000003      66.062500000000014
   275   1      13.212500000000006      69.837500000000006      64.175000000000011
   276   1       11.32500000000001      67.950000000000003      67.950000000000003
   277   1      13.212500000000006      67.950000000000003      69.837500000000006
   278   1      13.212500000000006      69.837500000000006      67.950000000000003
   279   1      13.212500000000006      71.725000000000009      54.737500000000011
   280   1       11.32500000000001      71.725000000000009      56.625000000000007
   281   1      13.212500000000006      71.725000000000009       58.51250000000001
   282   1      13.212500000000006      73.612500000000011      56.625000000000007
   283   1       11.32500000000001      71.725000000000009      60.400000000000006
   284   1      13.212500000000006      71.725000000000009      62.287500000000009
   285   1      13.212500000000006      73.612500000000011      60.400000000000006
   286   1       11.32500000000001      71.725000000000009      64.175000000000011
   287   1      13.212500000000006      71.725000000000009      66.062500000000014
   288   1      13.212500000000006      73.612500000000011      64.175000000000011
   289   1      16.987500000000011      43.412500000000009      56.625000000000007
   290   1      16.987500000000011      43.412500000000009      60.400000000000006
   291   1      16.987500000000011      43.412500000000009      64.175000000000011
   292   1      16.987500000000011      47.187500000000007       49.07500000000001
   293   1      15.100000000000009      47.187500000000007      54.737500000000011
   294   1      16.987500000000011      45.300000000000004      54.737500000000011
   295   1      16.987500000000011      47.187500000000007      52.850000000000009
   296   1      15.100000000000009      45.300000000000004      56.625000000000007
   297   1      15.100000000000009      47.187500000000007       58.51250000000001
   298   1      16.987500000000011      45.300000000000004       58.51250000000001
   299   1      16.987500000000011      47.187500000000007      56.625000000000007
   300   1      15.100000000000009      45.300000000000004      60.400000000000006
   301   1      15.100000000000009      47.187500000000007      62.287500000000009
   302   1      16.987500000000011      45.300000000000004      62.287500000000009
   303   1      16.987500000000011      47.187500000000007      60.400000000000006
   304   1      15.100000000000009      45.300000000000004      64.175000000000011
   305   1      15.100000000000009      47.187500000000007      66.062500000000014
   306   1      16.987500000000011      45.300000000000004      66.062500000000014
   307   1      16.987500000000011      47.187500000000007      64.175000000000011
   308   1      16.987500000000011      47.187500000000007      67.950000000000003
   309   1      16.987500000000011      47.187500000000007      71.725000000000009
   310   1      16.987500000000011       49.07500000000001      47.187500000000007
   311   1      15.100000000000009       49.07500000000001       49.07500000000001
   312   1      15.100000000000009      50.962500000000013      50.962500000000013
   313   1      16.987500000000011       49.07500000000001      50.962500000000013
   314   1      16.987500000000011      50.962500000000013       49.07500000000001
   315   1      15.100000000000009       49.07500000000001      52.850000000000009
   316   1      15.100000000000009      50.962500000000013      54.737500000000011
   317   1      16.987500000000011       49.07500000000001      54.737500000000011
   318   1      16.987500000000011      50.962500000000013      52.850000000000009
   319   1      15.100000000000009       49.07500000000001      56.625000000000007
   320   1      15.100000000000009      50.962500000000013       58.51250000000001
   321   1      16.987500000000011       49.07500000000001       58.51250000000001
   322   1      16.987500000000011      50.962500000000013      56.625000000000007
   323   1      15.100000000000009       49.07500000000001      60.400000000000006
   324   1      15.100000000000009      50.962500000000013      62.287500000000009
   325   1      16.987500000000011       49.07500000000001      62.287500000000009
   326   1      16.987500000000011      50.962500000000013      60.400000000000006
   327   1      15.100000000000009       49.07500000000001      64.175000000000011
   328   1      15.100000000000009      50.962500000000013      66.062500000000014
   329   1      16.987500000000011       49.07500000000001      66.062500000000014
   330   1      16.987500000000011      50.962500000000013      64.175000000000011
   331   1      15.100000000000009       49.07500000000001      67.950000000000003
   332   1      15.100000000000009      50.962500000000013      69.837500000000006
   333   1      16.987500000000011       49.07500000000001      69.837500000000006
   334   1      16.987500000000011      50.962500000000013      67.950000000000003
   335   1      15.100000000000009       49.07500000000001      71.725000000000009
   336   1      16.987500000000011       49.07500000000001      73.612500000000011
   337   1      16.987500000000011      50.962500000000013      71.725000000000009
   338   1      15.100000000000009      54.737500000000011      47.187500000000007
   339   1      16.987500000000011      52.850000000000009      47.187500000000007
   340   1      16.987500000000011      54.737500000000011      45.300000000000004
   341   1      15.100000000000009      52.850000000000009       49.07500000000001
   342   1      15.100000000000009      54.737500000000011      50.962500000000013
   343   1      16.987500000000011      52.850000000000009      50.962500000000013
   344   1      16.987500000000011      54.737500000000011       49.07500000000001
   345   1      15.100000000000009      52.850000000000009      52.850000000000009
   346   1      15.100000000000009      54.737500000000011      54.737500000000011
   347   1      16.987500000000011      52.850000000000009      54.737500000000011
   348   1      16.987500000000011      54.737500000000011      52.850000000000009
   349   1      15.100000000000009      52.850000000000009      56.625000000000007
   350   1      15.100000000000009      54.737500000000011       58.51250000000001
   351   1      16.987500000000011      52.850000000000009       58.51250000000001
   352   1      16.987500000000011      54.737500000000011      56.625000000000007
   353   1      15.100000000000009      52.850000000000009      60.400000000000006
   354   1      15.100000000000009      54.737500000000011      62.287500000000009
   355   1      16.987500000000011      52.850000000000009      62.287500000000009
   356   1      16.987500000000011      54.737500000000011      60.400000000000006
   357   1      15.100000000000009      52.850000000000009      64.175000000000011
   358   1      15.100000000000009      54.737500000000011      66.062500000000014