model_files/Pt/Pt_3000/Pt_441/data.Pt_441_fcc_3007 (written by ASE) 

3007 	 atoms 
1  atom types
0.0                      54  xlo xhi
0.0                      54  ylo yhi
0.0                      54  zlo zhi


Atoms 

     1   1      1.9599999999999971      25.479999999999993      27.439999999999998
     2   1      1.9599999999999971      27.439999999999998      25.479999999999993
     3   1                       0      27.439999999999998      27.439999999999998
     4   1      1.9599999999999971      27.439999999999998      29.399999999999999
     5   1      1.9599999999999971      29.399999999999999      27.439999999999998
     6   1       5.879999999999999      21.559999999999995      23.519999999999996
     7   1       5.879999999999999      21.559999999999995      27.439999999999998
     8   1       5.879999999999999      21.559999999999995      31.359999999999996
     9   1       5.879999999999999      23.519999999999996      21.559999999999995
    10   1      3.9199999999999982      23.519999999999996      23.519999999999996
    11   1      3.9199999999999982      25.479999999999993      25.479999999999993
    12   1       5.879999999999999      23.519999999999996      25.479999999999993
    13   1       5.879999999999999      25.479999999999993      23.519999999999996
    14   1      3.9199999999999982      23.519999999999996      27.439999999999998
    15   1      3.9199999999999982      25.479999999999993      29.399999999999999
    16   1       5.879999999999999      23.519999999999996      29.399999999999999
    17   1       5.879999999999999      25.479999999999993      27.439999999999998
    18   1      3.9199999999999982      23.519999999999996      31.359999999999996
    19   1       5.879999999999999      23.519999999999996                   33.32
    20   1       5.879999999999999      25.479999999999993      31.359999999999996
    21   1       5.879999999999999      27.439999999999998      21.559999999999995
    22   1      3.9199999999999982      27.439999999999998      23.519999999999996
    23   1      3.9199999999999982      29.399999999999999      25.479999999999993
    24   1       5.879999999999999      27.439999999999998      25.479999999999993
    25   1       5.879999999999999      29.399999999999999      23.519999999999996
    26   1      3.9199999999999982      27.439999999999998      27.439999999999998
    27   1      3.9199999999999982      29.399999999999999      29.399999999999999
    28   1       5.879999999999999      27.439999999999998      29.399999999999999
    29   1       5.879999999999999      29.399999999999999      27.439999999999998
    30   1      3.9199999999999982      27.439999999999998      31.359999999999996
    31   1       5.879999999999999      27.439999999999998                   33.32
    32   1       5.879999999999999      29.399999999999999      31.359999999999996
    33   1       5.879999999999999      31.359999999999996      21.559999999999995
    34   1      3.9199999999999982      31.359999999999996      23.519999999999996
    35   1       5.879999999999999      31.359999999999996      25.479999999999993
    36   1       5.879999999999999                   33.32      23.519999999999996
    37   1      3.9199999999999982      31.359999999999996      27.439999999999998
    38   1       5.879999999999999      31.359999999999996      29.399999999999999
    39   1       5.879999999999999                   33.32      27.439999999999998
    40   1      3.9199999999999982      31.359999999999996      31.359999999999996
    41   1       5.879999999999999      31.359999999999996                   33.32
    42   1       5.879999999999999                   33.32      31.359999999999996
    43   1      9.7999999999999954      17.640000000000001      19.599999999999994
    44   1      9.7999999999999954      17.640000000000001      23.519999999999996
    45   1      9.7999999999999954      17.640000000000001      27.439999999999998
    46   1      9.7999999999999954      17.640000000000001      31.359999999999996
    47   1      9.7999999999999954      17.640000000000001      35.280000000000001
    48   1      9.7999999999999954      19.599999999999994      17.640000000000001
    49   1      7.8399999999999963      19.599999999999994      19.599999999999994
    50   1      7.8399999999999963      21.559999999999995      21.559999999999995
    51   1      9.7999999999999954      19.599999999999994      21.559999999999995
    52   1      9.7999999999999954      21.559999999999995      19.599999999999994
    53   1      7.8399999999999963      19.599999999999994      23.519999999999996
    54   1      7.8399999999999963      21.559999999999995      25.479999999999993
    55   1      9.7999999999999954      19.599999999999994      25.479999999999993
    56   1      9.7999999999999954      21.559999999999995      23.519999999999996
    57   1      7.8399999999999963      19.599999999999994      27.439999999999998
    58   1      7.8399999999999963      21.559999999999995      29.399999999999999
    59   1      9.7999999999999954      19.599999999999994      29.399999999999999
    60   1      9.7999999999999954      21.559999999999995      27.439999999999998
    61   1      7.8399999999999963      19.599999999999994      31.359999999999996
    62   1      7.8399999999999963      21.559999999999995                   33.32
    63   1      9.7999999999999954      19.599999999999994                   33.32
    64   1      9.7999999999999954      21.559999999999995      31.359999999999996
    65   1      7.8399999999999963      19.599999999999994      35.280000000000001
    66   1      9.7999999999999954      19.599999999999994      37.239999999999995
    67   1      9.7999999999999954      21.559999999999995      35.280000000000001
    68   1      9.7999999999999954      23.519999999999996      17.640000000000001
    69   1      7.8399999999999963      23.519999999999996      19.599999999999994
    70   1      7.8399999999999963      25.479999999999993      21.559999999999995
    71   1      9.7999999999999954      23.519999999999996      21.559999999999995
    72   1      9.7999999999999954      25.479999999999993      19.599999999999994
    73   1      7.8399999999999963      23.519999999999996      23.519999999999996
    74   1      7.8399999999999963      25.479999999999993      25.479999999999993
    75   1      9.7999999999999954      23.519999999999996      25.479999999999993
    76   1      9.7999999999999954      25.479999999999993      23.519999999999996
    77   1      7.8399999999999963      23.519999999999996      27.439999999999998
    78   1      7.8399999999999963      25.479999999999993      29.399999999999999
    79   1      9.7999999999999954      23.519999999999996      29.399999999999999
    80   1      9.7999999999999954      25.479999999999993      27.439999999999998
    81   1      7.8399999999999963      23.519999999999996      31.359999999999996
    82   1      7.8399999999999963      25.479999999999993                   33.32
    83   1      9.7999999999999954      23.519999999999996                   33.32
    84   1      9.7999999999999954      25.479999999999993      31.359999999999996
    85   1      7.8399999999999963      23.519999999999996      35.280000000000001
    86   1      9.7999999999999954      23.519999999999996      37.239999999999995
    87   1      9.7999999999999954      25.479999999999993      35.280000000000001
    88   1      9.7999999999999954      27.439999999999998      17.640000000000001
    89   1      7.8399999999999963      27.439999999999998      19.599999999999994
    90   1      7.8399999999999963      29.399999999999999      21.559999999999995
    91   1      9.7999999999999954      27.439999999999998      21.559999999999995
    92   1      9.7999999999999954      29.399999999999999      19.599999999999994
    93   1      7.8399999999999963      27.439999999999998      23.519999999999996
    94   1      7.8399999999999963      29.399999999999999      25.479999999999993
    95   1      9.7999999999999954      27.439999999999998      25.479999999999993
    96   1      9.7999999999999954      29.399999999999999      23.519999999999996
    97   1      7.8399999999999963      27.439999999999998      27.439999999999998
    98   1      7.8399999999999963      29.399999999999999      29.399999999999999
    99   1      9.7999999999999954      27.439999999999998      29.399999999999999
   100   1      9.7999999999999954      29.399999999999999      27.439999999999998
   101   1      7.8399999999999963      27.439999999999998      31.359999999999996
   102   1      7.8399999999999963      29.399999999999999                   33.32
   103   1      9.7999999999999954      27.439999999999998                   33.32
   104   1      9.7999999999999954      29.399999999999999      31.359999999999996
   105   1      7.8399999999999963      27.439999999999998      35.280000000000001
   106   1      9.7999999999999954      27.439999999999998      37.239999999999995
   107   1      9.7999999999999954      29.399999999999999      35.280000000000001
   108   1      9.7999999999999954      31.359999999999996      17.640000000000001
   109   1      7.8399999999999963      31.359999999999996      19.599999999999994
   110   1      7.8399999999999963                   33.32      21.559999999999995
   111   1      9.7999999999999954      31.359999999999996      21.559999999999995
   112   1      9.7999999999999954                   33.32      19.599999999999994
   113   1      7.8399999999999963      31.359999999999996      23.519999999999996
   114   1      7.8399999999999963                   33.32      25.479999999999993
   115   1      9.7999999999999954      31.359999999999996      25.479999999999993
   116   1      9.7999999999999954                   33.32      23.519999999999996
   117   1      7.8399999999999963      31.359999999999996      27.439999999999998
   118   1      7.8399999999999963                   33.32      29.399999999999999
   119   1      9.7999999999999954      31.359999999999996      29.399999999999999
   120   1      9.7999999999999954                   33.32      27.439999999999998
   121   1      7.8399999999999963      31.359999999999996      31.359999999999996
   122   1      7.8399999999999963                   33.32                   33.32
   123   1      9.7999999999999954      31.359999999999996                   33.32
   124   1      9.7999999999999954                   33.32      31.359999999999996
   125   1      7.8399999999999963      31.359999999999996      35.280000000000001
   126   1      9.7999999999999954      31.359999999999996      37.239999999999995
   127   1      9.7999999999999954                   33.32      35.280000000000001
   128   1      9.7999999999999954      35.280000000000001      17.640000000000001
   129   1      7.8399999999999963      35.280000000000001      19.599999999999994
   130   1      9.7999999999999954      35.280000000000001      21.559999999999995
   131   1      9.7999999999999954      37.239999999999995      19.599999999999994
   132   1      7.8399999999999963      35.280000000000001      23.519999999999996
   133   1      9.7999999999999954      35.280000000000001      25.479999999999993
   134   1      9.7999999999999954      37.239999999999995      23.519999999999996
   135   1      7.8399999999999963      35.280000000000001      27.439999999999998
   136   1      9.7999999999999954      35.280000000000001      29.399999999999999
   137   1      9.7999999999999954      37.239999999999995      27.439999999999998
   138   1      7.8399999999999963      35.280000000000001      31.359999999999996
   139   1      9.7999999999999954      35.280000000000001                   33.32
   140   1      9.7999999999999954      37.239999999999995      31.359999999999996
   141   1      7.8399999999999963      35.280000000000001      35.280000000000001
   142   1      9.7999999999999954      35.280000000000001      37.239999999999995
   143   1      9.7999999999999954      37.239999999999995      35.280000000000001
   144   1      13.719999999999999      13.719999999999999      19.599999999999994
   145   1      13.719999999999999      13.719999999999999      23.519999999999996
   146   1      13.719999999999999      13.719999999999999      27.439999999999998
   147   1      13.719999999999999      13.719999999999999      31.359999999999996
   148   1      13.719999999999999      13.719999999999999      35.280000000000001
   149   1      11.759999999999998      17.640000000000001      17.640000000000001
   150   1      13.719999999999999      15.679999999999998      17.640000000000001
   151   1      13.719999999999999      17.640000000000001      15.679999999999998
   152   1      11.759999999999998      15.679999999999998      19.599999999999994
   153   1      11.759999999999998      17.640000000000001      21.559999999999995
   154   1      13.719999999999999      15.679999999999998      21.559999999999995
   155   1      13.719999999999999      17.640000000000001      19.599999999999994
   156   1      11.759999999999998      15.679999999999998      23.519999999999996
   157   1      11.759999999999998      17.640000000000001      25.479999999999993
   158   1      13.719999999999999      15.679999999999998      25.479999999999993
   159   1      13.719999999999999      17.640000000000001      23.519999999999996
   160   1      11.759999999999998      15.679999999999998      27.439999999999998
   161   1      11.759999999999998      17.640000000000001      29.399999999999999
   162   1      13.719999999999999      15.679999999999998      29.399999999999999
   163   1      13.719999999999999      17.640000000000001      27.439999999999998
   164   1      11.759999999999998      15.679999999999998      31.359999999999996
   165   1      11.759999999999998      17.640000000000001                   33.32
   166   1      13.719999999999999      15.679999999999998                   33.32
   167   1      13.719999999999999      17.640000000000001      31.359999999999996
   168   1      11.759999999999998      15.679999999999998      35.280000000000001
   169   1      11.759999999999998      17.640000000000001      37.239999999999995
   170   1      13.719999999999999      15.679999999999998      37.239999999999995
   171   1      13.719999999999999      17.640000000000001      35.280000000000001
   172   1      13.719999999999999      17.640000000000001      39.199999999999989
   173   1      13.719999999999999      19.599999999999994      13.719999999999999
   174   1      11.759999999999998      19.599999999999994      15.679999999999998
   175   1      11.759999999999998      21.559999999999995      17.640000000000001
   176   1      13.719999999999999      19.599999999999994      17.640000000000001
   177   1      13.719999999999999      21.559999999999995      15.679999999999998
   178   1      11.759999999999998      19.599999999999994      19.599999999999994
   179   1      11.759999999999998      21.559999999999995      21.559999999999995
   180   1      13.719999999999999      19.599999999999994      21.559999999999995
   181   1      13.719999999999999      21.559999999999995      19.599999999999994
   182   1      11.759999999999998      19.599999999999994      23.519999999999996
   183   1      11.759999999999998      21.559999999999995      25.479999999999993
   184   1      13.719999999999999      19.599999999999994      25.479999999999993
   185   1      13.719999999999999      21.559999999999995      23.519999999999996
   186   1      11.759999999999998      19.599999999999994      27.439999999999998
   187   1      11.759999999999998      21.559999999999995      29.399999999999999
   188   1      13.719999999999999      19.599999999999994      29.399999999999999
   189   1      13.719999999999999      21.559999999999995      27.439999999999998
   190   1      11.759999999999998      19.599999999999994      31.359999999999996
   191   1      11.759999999999998      21.559999999999995                   33.32
   192   1      13.719999999999999      19.599999999999994                   33.32
   193   1      13.719999999999999      21.559999999999995      31.359999999999996
   194   1      11.759999999999998      19.599999999999994      35.280000000000001
   195   1      11.759999999999998      21.559999999999995      37.239999999999995
   196   1      13.719999999999999      19.599999999999994      37.239999999999995
   197   1      13.719999999999999      21.559999999999995      35.280000000000001
   198   1      11.759999999999998      19.599999999999994      39.199999999999989
   199   1      13.719999999999999      19.599999999999994      41.159999999999997
   200   1      13.719999999999999      21.559999999999995      39.199999999999989
   201   1      13.719999999999999      23.519999999999996      13.719999999999999
   202   1      11.759999999999998      23.519999999999996      15.679999999999998
   203   1      11.759999999999998      25.479999999999993      17.640000000000001
   204   1      13.719999999999999      23.519999999999996      17.640000000000001
   205   1      13.719999999999999      25.479999999999993      15.679999999999998
   206   1      11.759999999999998      23.519999999999996      19.599999999999994
   207   1      11.759999999999998      25.479999999999993      21.559999999999995
   208   1      13.719999999999999      23.519999999999996      21.559999999999995
   209   1      13.719999999999999      25.479999999999993      19.599999999999994
   210   1      11.759999999999998      23.519999999999996      23.519999999999996
   211   1      11.759999999999998      25.479999999999993      25.479999999999993
   212   1      13.719999999999999      23.519999999999996      25.479999999999993
   213   1      13.719999999999999      25.479999999999993      23.519999999999996
   214   1      11.759999999999998      23.519999999999996      27.439999999999998
   215   1      11.759999999999998      25.479999999999993      29.399999999999999
   216   1      13.719999999999999      23.519999999999996      29.399999999999999
   217   1      13.719999999999999      25.479999999999993      27.439999999999998
   218   1      11.759999999999998      23.519999999999996      31.359999999999996
   219   1      11.759999999999998      25.479999999999993                   33.32
   220   1      13.719999999999999      23.519999999999996                   33.32
   221   1      13.719999999999999      25.479999999999993      31.359999999999996
   222   1      11.759999999999998      23.519999999999996      35.280000000000001
   223   1      11.759999999999998      25.479999999999993      37.239999999999995
   224   1      13.719999999999999      23.519999999999996      37.239999999999995
   225   1      13.719999999999999      25.479999999999993      35.280000000000001
   226   1      11.759999999999998      23.519999999999996      39.199999999999989
   227   1      13.719999999999999      23.519999999999996      41.159999999999997
   228   1      13.719999999999999      25.479999999999993      39.199999999999989
   229   1      13.719999999999999      27.439999999999998      13.719999999999999
   230   1      11.759999999999998      27.439999999999998      15.679999999999998
   231   1      11.759999999999998      29.399999999999999      17.640000000000001
   232   1      13.719999999999999      27.439999999999998      17.640000000000001
   233   1      13.719999999999999      29.399999999999999      15.679999999999998
   234   1      11.759999999999998      27.439999999999998      19.599999999999994
   235   1      11.759999999999998      29.399999999999999      21.559999999999995
   236   1      13.719999999999999      27.439999999999998      21.559999999999995
   237   1      13.719999999999999      29.399999999999999      19.599999999999994
   238   1      11.759999999999998      27.439999999999998      23.519999999999996
   239   1      11.759999999999998      29.399999999999999      25.479999999999993
   240   1      13.719999999999999      27.439999999999998      25.479999999999993
   241   1      13.719999999999999      29.399999999999999      23.519999999999996
   242   1      11.759999999999998      27.439999999999998      27.439999999999998
   243   1      11.759999999999998      29.399999999999999      29.399999999999999
   244   1      13.719999999999999      27.439999999999998      29.399999999999999
   245   1      13.719999999999999      29.399999999999999      27.439999999999998
   246   1      11.759999999999998      27.439999999999998      31.359999999999996
   247   1      11.759999999999998      29.399999999999999                   33.32
   248   1      13.719999999999999      27.439999999999998                   33.32
   249   1      13.719999999999999      29.399999999999999      31.359999999999996
   250   1      11.759999999999998      27.439999999999998      35.280000000000001
   251   1      11.759999999999998      29.399999999999999      37.239999999999995
   252   1      13.719999999999999      27.439999999999998      37.239999999999995
   253   1      13.719999999999999      29.399999999999999      35.280000000000001
   254   1      11.759999999999998      27.439999999999998      39.199999999999989
   255   1      13.719999999999999      27.439999999999998      41.159999999999997
   256   1      13.719999999999999      29.399999999999999      39.199999999999989
   257   1      13.719999999999999      31.359999999999996      13.719999999999999
   258   1      11.759999999999998      31.359999999999996      15.679999999999998
   259   1      11.759999999999998                   33.32      17.640000000000001
   260   1      13.719999999999999      31.359999999999996      17.640000000000001
   261   1      13.719999999999999                   33.32      15.679999999999998
   262   1      11.759999999999998      31.359999999999996      19.599999999999994
   263   1      11.759999999999998                   33.32      21.559999999999995
   264   1      13.719999999999999      31.359999999999996      21.559999999999995
   265   1      13.719999999999999                   33.32      19.599999999999994
   266   1      11.759999999999998      31.359999999999996      23.519999999999996
   267   1      11.759999999999998                   33.32      25.479999999999993
   268   1      13.719999999999999      31.359999999999996      25.479999999999993
   269   1      13.719999999999999                   33.32      23.519999999999996
   270   1      11.759999999999998      31.359999999999996      27.439999999999998
   271   1      11.759999999999998                   33.32      29.399999999999999
   272   1      13.719999999999999      31.359999999999996      29.399999999999999
   273   1      13.719999999999999                   33.32      27.439999999999998
   274   1      11.759999999999998      31.359999999999996      31.359999999999996
   275   1      11.759999999999998                   33.32                   33.32
   276   1      13.719999999999999      31.359999999999996                   33.32
   277   1      13.719999999999999                   33.32      31.359999999999996
   278   1      11.759999999999998      31.359999999999996      35.280000000000001
   279   1      11.759999999999998                   33.32      37.239999999999995
   280   1      13.719999999999999      31.359999999999996      37.239999999999995
   281   1      13.719999999999999                   33.32      35.280000000000001
   282   1      11.759999999999998      31.359999999999996      39.199999999999989
   283   1      13.719999999999999      31.359999999999996      41.159999999999997
   284   1      13.719999999999999                   33.32      39.199999999999989
   285   1      13.719999999999999      35.280000000000001      13.719999999999999
   286   1      11.759999999999998      35.280000000000001      15.679999999999998
   287   1      11.759999999999998      37.239999999999995      17.640000000000001
   288   1      13.719999999999999      35.280000000000001      17.640000000000001
   289   1      13.719999999999999      37.239999999999995      15.679999999999998
   290   1      11.759999999999998      35.280000000000001      19.599999999999994
   291   1      11.759999999999998      37.239999999999995      21.559999999999995
   292   1      13.719999999999999      35.280000000000001      21.559999999999995
   293   1      13.719999999999999      37.239999999999995      19.599999999999994
   294   1      11.759999999999998      35.280000000000001      23.519999999999996
   295   1      11.759999999999998      37.239999999999995      25.479999999999993
   296   1      13.719999999999999      35.280000000000001      25.479999999999993
   297   1      13.719999999999999      37.239999999999995      23.519999999999996
   298   1      11.759999999999998      35.280000000000001      27.439999999999998
   299   1      11.759999999999998      37.239999999999995      29.399999999999999
   300   1      13.719999999999999      35.280000000000001      29.399999999999999
   301   1      13.719999999999999      37.239999999999995      27.439999999999998
   302   1      11.759999999999998      35.280000000000001      31.359999999999996
   303   1      11.759999999999998      37.239999999999995                   33.32
   304   1      13.719999999999999      35.280000000000001                   33.32
   305   1      13.719999999999999      37.239999999999995      31.359999999999996
   306   1      11.759999999999998      35.280000000000001      35.280000000000001
   307   1      11.759999999999998      37.239999999999995      37.239999999999995
   308   1      13.719999999999999      35.280000000000001      37.239999999999995
   309   1      13.719999999999999      37.239999999999995      35.280000000000001
   310   1      11.759999999999998      35.280000000000001      39.199999999999989
   311   1      13.719999999999999      35.280000000000001      41.159999999999997
   312   1      13.719999999999999      37.239999999999995      39.199999999999989
   313   1      13.719999999999999      39.199999999999989      17.640000000000001
   314   1      11.759999999999998      39.199999999999989      19.599999999999994
   315   1      13.719999999999999      39.199999999999989      21.559999999999995
   316   1      13.719999999999999      41.159999999999997      19.599999999999994
   317   1      11.759999999999998      39.199999999999989      23.519999999999996
   318   1      13.719999999999999      39.199999999999989      25.479999999999993
   319   1      13.719999999999999      41.159999999999997      23.519999999999996
   320   1      11.759999999999998      39.199999999999989      27.439999999999998
   321   1      13.719999999999999      39.199999999999989      29.399999999999999
   322   1      13.719999999999999      41.159999999999997      27.439999999999998
   323   1      11.759999999999998      39.199999999999989      31.359999999999996
   324   1      13.719999999999999      39.199999999999989                   33.32
   325   1      13.719999999999999      41.159999999999997      31.359999999999996
   326   1      11.759999999999998      39.199999999999989      35.280000000000001
   327   1      13.719999999999999      39.199999999999989      37.239999999999995
   328   1      13.719999999999999      41.159999999999997      35.280000000000001
   329   1      17.640000000000001      9.7999999999999954      19.599999999999994
   330   1      17.640000000000001      9.7999999999999954      23.519999999999996
   331   1      17.640000000000001      9.7999999999999954      27.439999999999998
   332   1      17.640000000000001      9.7999999999999954      31.359999999999996
   333   1      17.640000000000001      9.7999999999999954      35.280000000000001
   334   1      15.679999999999998      13.719999999999999      17.640000000000001
   335   1      17.640000000000001      11.759999999999998      17.640000000000001
   336   1      17.640000000000001      13.719999999999999      15.679999999999998
   337   1      15.679999999999998      11.759999999999998      19.599999999999994
   338   1      15.679999999999998      13.719999999999999      21.559999999999995
   339   1      17.640000000000001      11.759999999999998      21.559999999999995
   340   1      17.640000000000001      13.719999999999999      19.599999999999994
   341   1      15.679999999999998      11.759999999999998      23.519999999999996
   342   1      15.679999999999998      13.719999999999999      25.479999999999993
   343   1      17.640000000000001      11.759999999999998      25.479999999999993
   344   1      17.640000000000001      13.719999999999999      23.519999999999996
   345   1      15.679999999999998      11.759999999999998      27.439999999999998
   346   1      15.679999999999998      13.719999999999999      29.399999999999999
   347   1      17.640000000000001      11.759999999999998      29.399999999999999
   348   1      17.640000000000001      13.719999999999999      27.439999999999998
   349   1      15.679999999999998      11.759999999999998      31.359999999999996
   350   1      15.679999999999998      13.719999999999999                   33.32
   351   1      17.640000000000001      11.759999999999998                   33.32
   352   1      17.640000000000001      13.719999999999999      31.359999999999996
   353   1      15.679999999999998      11.759999999999998      35.280000000000001
   354   1      15.679999999999998      13.719999999999999      37.239999999999995
   355   1      17.640000000000001      11.759999999999998      37.239999999999995
   356   1      17.640000000000001      13.719999999999999      35.280000000000001
   357   1      17.640000000000001      13.719999999999999      39.199999999999989
   358   1      15.679999999999998      17.640000000000001      13.719999999999999