model_files/Pd/Pd_30000/Pd_322/data.Pd_322_fcc_30187 (written by ASE) 

30187 	 atoms 
1  atom types
0.0                     116  xlo xhi
0.0                     116  ylo yhi
0.0                     116  zlo zhi


Atoms 

     1   1      1.9450000000000001      56.405000000000001      58.350000000000001
     2   1      1.9450000000000001      58.350000000000001      56.405000000000001
     3   1                       0      58.350000000000001      58.350000000000001
     4   1      1.9450000000000001      58.350000000000001      60.294999999999995
     5   1      1.9450000000000001      60.294999999999995      58.350000000000001
     6   1      5.8350000000000009                  48.625      58.350000000000001
     7   1      3.8900000000000001      52.515000000000001      56.405000000000001
     8   1      5.8350000000000009                   50.57      56.405000000000001
     9   1      5.8350000000000009      52.515000000000001      54.460000000000001
    10   1      3.8900000000000001                   50.57      58.350000000000001
    11   1      3.8900000000000001      52.515000000000001      60.294999999999995
    12   1      5.8350000000000009                   50.57      60.294999999999995
    13   1      5.8350000000000009      52.515000000000001      58.350000000000001
    14   1      5.8350000000000009      52.515000000000001      62.239999999999988
    15   1      3.8900000000000001      56.405000000000001      52.515000000000001
    16   1      5.8350000000000009      54.460000000000001      52.515000000000001
    17   1      5.8350000000000009      56.405000000000001                   50.57
    18   1      3.8900000000000001      54.460000000000001      54.460000000000001
    19   1      3.8900000000000001      56.405000000000001      56.405000000000001
    20   1      5.8350000000000009      54.460000000000001      56.405000000000001
    21   1      5.8350000000000009      56.405000000000001      54.460000000000001
    22   1      3.8900000000000001      54.460000000000001      58.350000000000001
    23   1      3.8900000000000001      56.405000000000001      60.294999999999995
    24   1      5.8350000000000009      54.460000000000001      60.294999999999995
    25   1      5.8350000000000009      56.405000000000001      58.350000000000001
    26   1      3.8900000000000001      54.460000000000001      62.239999999999988
    27   1      3.8900000000000001      56.405000000000001      64.184999999999988
    28   1      5.8350000000000009      54.460000000000001      64.184999999999988
    29   1      5.8350000000000009      56.405000000000001      62.239999999999988
    30   1      5.8350000000000009      56.405000000000001      66.129999999999995
    31   1      5.8350000000000009      58.350000000000001                  48.625
    32   1      3.8900000000000001      58.350000000000001                   50.57
    33   1      3.8900000000000001      60.294999999999995      52.515000000000001
    34   1      5.8350000000000009      58.350000000000001      52.515000000000001
    35   1      5.8350000000000009      60.294999999999995                   50.57
    36   1      3.8900000000000001      58.350000000000001      54.460000000000001
    37   1      3.8900000000000001      60.294999999999995      56.405000000000001
    38   1      5.8350000000000009      58.350000000000001      56.405000000000001
    39   1      5.8350000000000009      60.294999999999995      54.460000000000001
    40   1      3.8900000000000001      58.350000000000001      58.350000000000001
    41   1      3.8900000000000001      60.294999999999995      60.294999999999995
    42   1      5.8350000000000009      58.350000000000001      60.294999999999995
    43   1      5.8350000000000009      60.294999999999995      58.350000000000001
    44   1      3.8900000000000001      58.350000000000001      62.239999999999988
    45   1      3.8900000000000001      60.294999999999995      64.184999999999988
    46   1      5.8350000000000009      58.350000000000001      64.184999999999988
    47   1      5.8350000000000009      60.294999999999995      62.239999999999988
    48   1      3.8900000000000001      58.350000000000001      66.129999999999995
    49   1      5.8350000000000009      58.350000000000001      68.074999999999989
    50   1      5.8350000000000009      60.294999999999995      66.129999999999995
    51   1      5.8350000000000009      62.239999999999988      52.515000000000001
    52   1      3.8900000000000001      62.239999999999988      54.460000000000001
    53   1      3.8900000000000001      64.184999999999988      56.405000000000001
    54   1      5.8350000000000009      62.239999999999988      56.405000000000001
    55   1      5.8350000000000009      64.184999999999988      54.460000000000001
    56   1      3.8900000000000001      62.239999999999988      58.350000000000001
    57   1      3.8900000000000001      64.184999999999988      60.294999999999995
    58   1      5.8350000000000009      62.239999999999988      60.294999999999995
    59   1      5.8350000000000009      64.184999999999988      58.350000000000001
    60   1      3.8900000000000001      62.239999999999988      62.239999999999988
    61   1      5.8350000000000009      62.239999999999988      64.184999999999988
    62   1      5.8350000000000009      64.184999999999988      62.239999999999988
    63   1      5.8350000000000009      66.129999999999995      56.405000000000001
    64   1      3.8900000000000001      66.129999999999995      58.350000000000001
    65   1      5.8350000000000009      66.129999999999995      60.294999999999995
    66   1      5.8350000000000009      68.074999999999989      58.350000000000001
    67   1      9.7250000000000014      44.734999999999999      58.350000000000001
    68   1      7.7800000000000002                  48.625      56.405000000000001
    69   1      9.7250000000000014                   46.68      56.405000000000001
    70   1      9.7250000000000014                  48.625      54.460000000000001
    71   1      7.7800000000000002                   46.68      58.350000000000001
    72   1      7.7800000000000002                  48.625      60.294999999999995
    73   1      9.7250000000000014                   46.68      60.294999999999995
    74   1      9.7250000000000014                  48.625      58.350000000000001
    75   1      9.7250000000000014                  48.625      62.239999999999988
    76   1      7.7800000000000002      52.515000000000001      52.515000000000001
    77   1      9.7250000000000014                   50.57      52.515000000000001
    78   1      9.7250000000000014      52.515000000000001                   50.57
    79   1      7.7800000000000002                   50.57      54.460000000000001
    80   1      7.7800000000000002      52.515000000000001      56.405000000000001
    81   1      9.7250000000000014                   50.57      56.405000000000001
    82   1      9.7250000000000014      52.515000000000001      54.460000000000001
    83   1      7.7800000000000002                   50.57      58.350000000000001
    84   1      7.7800000000000002      52.515000000000001      60.294999999999995
    85   1      9.7250000000000014                   50.57      60.294999999999995
    86   1      9.7250000000000014      52.515000000000001      58.350000000000001
    87   1      7.7800000000000002                   50.57      62.239999999999988
    88   1      7.7800000000000002      52.515000000000001      64.184999999999988
    89   1      9.7250000000000014                   50.57      64.184999999999988
    90   1      9.7250000000000014      52.515000000000001      62.239999999999988
    91   1      9.7250000000000014      52.515000000000001      66.129999999999995
    92   1      7.7800000000000002      56.405000000000001                  48.625
    93   1      9.7250000000000014      54.460000000000001                  48.625
    94   1      9.7250000000000014      56.405000000000001                   46.68
    95   1      7.7800000000000002      54.460000000000001                   50.57
    96   1      7.7800000000000002      56.405000000000001      52.515000000000001
    97   1      9.7250000000000014      54.460000000000001      52.515000000000001
    98   1      9.7250000000000014      56.405000000000001                   50.57
    99   1      7.7800000000000002      54.460000000000001      54.460000000000001
   100   1      7.7800000000000002      56.405000000000001      56.405000000000001
   101   1      9.7250000000000014      54.460000000000001      56.405000000000001
   102   1      9.7250000000000014      56.405000000000001      54.460000000000001
   103   1      7.7800000000000002      54.460000000000001      58.350000000000001
   104   1      7.7800000000000002      56.405000000000001      60.294999999999995
   105   1      9.7250000000000014      54.460000000000001      60.294999999999995
   106   1      9.7250000000000014      56.405000000000001      58.350000000000001
   107   1      7.7800000000000002      54.460000000000001      62.239999999999988
   108   1      7.7800000000000002      56.405000000000001      64.184999999999988
   109   1      9.7250000000000014      54.460000000000001      64.184999999999988
   110   1      9.7250000000000014      56.405000000000001      62.239999999999988
   111   1      7.7800000000000002      54.460000000000001      66.129999999999995
   112   1      7.7800000000000002      56.405000000000001      68.074999999999989
   113   1      9.7250000000000014      54.460000000000001      68.074999999999989
   114   1      9.7250000000000014      56.405000000000001      66.129999999999995
   115   1      9.7250000000000014      56.405000000000001      70.019999999999996
   116   1      9.7250000000000014      58.350000000000001      44.734999999999999
   117   1      7.7800000000000002      58.350000000000001                   46.68
   118   1      7.7800000000000002      60.294999999999995                  48.625
   119   1      9.7250000000000014      58.350000000000001                  48.625
   120   1      9.7250000000000014      60.294999999999995                   46.68
   121   1      7.7800000000000002      58.350000000000001                   50.57
   122   1      7.7800000000000002      60.294999999999995      52.515000000000001
   123   1      9.7250000000000014      58.350000000000001      52.515000000000001
   124   1      9.7250000000000014      60.294999999999995                   50.57
   125   1      7.7800000000000002      58.350000000000001      54.460000000000001
   126   1      7.7800000000000002      60.294999999999995      56.405000000000001
   127   1      9.7250000000000014      58.350000000000001      56.405000000000001
   128   1      9.7250000000000014      60.294999999999995      54.460000000000001
   129   1      7.7800000000000002      58.350000000000001      58.350000000000001
   130   1      7.7800000000000002      60.294999999999995      60.294999999999995
   131   1      9.7250000000000014      58.350000000000001      60.294999999999995
   132   1      9.7250000000000014      60.294999999999995      58.350000000000001
   133   1      7.7800000000000002      58.350000000000001      62.239999999999988
   134   1      7.7800000000000002      60.294999999999995      64.184999999999988
   135   1      9.7250000000000014      58.350000000000001      64.184999999999988
   136   1      9.7250000000000014      60.294999999999995      62.239999999999988
   137   1      7.7800000000000002      58.350000000000001      66.129999999999995
   138   1      7.7800000000000002      60.294999999999995      68.074999999999989
   139   1      9.7250000000000014      58.350000000000001      68.074999999999989
   140   1      9.7250000000000014      60.294999999999995      66.129999999999995
   141   1      7.7800000000000002      58.350000000000001      70.019999999999996
   142   1      9.7250000000000014      58.350000000000001      71.964999999999989
   143   1      9.7250000000000014      60.294999999999995      70.019999999999996
   144   1      9.7250000000000014      62.239999999999988                  48.625
   145   1      7.7800000000000002      62.239999999999988                   50.57
   146   1      7.7800000000000002      64.184999999999988      52.515000000000001
   147   1      9.7250000000000014      62.239999999999988      52.515000000000001
   148   1      9.7250000000000014      64.184999999999988                   50.57
   149   1      7.7800000000000002      62.239999999999988      54.460000000000001
   150   1      7.7800000000000002      64.184999999999988      56.405000000000001
   151   1      9.7250000000000014      62.239999999999988      56.405000000000001
   152   1      9.7250000000000014      64.184999999999988      54.460000000000001
   153   1      7.7800000000000002      62.239999999999988      58.350000000000001
   154   1      7.7800000000000002      64.184999999999988      60.294999999999995
   155   1      9.7250000000000014      62.239999999999988      60.294999999999995
   156   1      9.7250000000000014      64.184999999999988      58.350000000000001
   157   1      7.7800000000000002      62.239999999999988      62.239999999999988
   158   1      7.7800000000000002      64.184999999999988      64.184999999999988
   159   1      9.7250000000000014      62.239999999999988      64.184999999999988
   160   1      9.7250000000000014      64.184999999999988      62.239999999999988
   161   1      7.7800000000000002      62.239999999999988      66.129999999999995
   162   1      9.7250000000000014      62.239999999999988      68.074999999999989
   163   1      9.7250000000000014      64.184999999999988      66.129999999999995
   164   1      9.7250000000000014      66.129999999999995      52.515000000000001
   165   1      7.7800000000000002      66.129999999999995      54.460000000000001
   166   1      7.7800000000000002      68.074999999999989      56.405000000000001
   167   1      9.7250000000000014      66.129999999999995      56.405000000000001
   168   1      9.7250000000000014      68.074999999999989      54.460000000000001
   169   1      7.7800000000000002      66.129999999999995      58.350000000000001
   170   1      7.7800000000000002      68.074999999999989      60.294999999999995
   171   1      9.7250000000000014      66.129999999999995      60.294999999999995
   172   1      9.7250000000000014      68.074999999999989      58.350000000000001
   173   1      7.7800000000000002      66.129999999999995      62.239999999999988
   174   1      9.7250000000000014      66.129999999999995      64.184999999999988
   175   1      9.7250000000000014      68.074999999999989      62.239999999999988
   176   1      9.7250000000000014      70.019999999999996      56.405000000000001
   177   1      7.7800000000000002      70.019999999999996      58.350000000000001
   178   1      9.7250000000000014      70.019999999999996      60.294999999999995
   179   1      9.7250000000000014      71.964999999999989      58.350000000000001
   180   1      13.615000000000002      36.954999999999998      58.350000000000001
   181   1      11.670000000000002      40.844999999999999      56.405000000000001
   182   1      13.615000000000002      38.899999999999999      56.405000000000001
   183   1      13.615000000000002      40.844999999999999      54.460000000000001
   184   1      11.670000000000002      38.899999999999999      58.350000000000001
   185   1      11.670000000000002      40.844999999999999      60.294999999999995
   186   1      13.615000000000002      38.899999999999999      60.294999999999995
   187   1      13.615000000000002      40.844999999999999      58.350000000000001
   188   1      13.615000000000002      40.844999999999999      62.239999999999988
   189   1      11.670000000000002      44.734999999999999      52.515000000000001
   190   1      13.615000000000002      42.789999999999999      52.515000000000001
   191   1      13.615000000000002      44.734999999999999                   50.57
   192   1      11.670000000000002      42.789999999999999      54.460000000000001
   193   1      11.670000000000002      44.734999999999999      56.405000000000001
   194   1      13.615000000000002      42.789999999999999      56.405000000000001
   195   1      13.615000000000002      44.734999999999999      54.460000000000001
   196   1      11.670000000000002      42.789999999999999      58.350000000000001
   197   1      11.670000000000002      44.734999999999999      60.294999999999995
   198   1      13.615000000000002      42.789999999999999      60.294999999999995
   199   1      13.615000000000002      44.734999999999999      58.350000000000001
   200   1      11.670000000000002      42.789999999999999      62.239999999999988
   201   1      11.670000000000002      44.734999999999999      64.184999999999988
   202   1      13.615000000000002      42.789999999999999      64.184999999999988
   203   1      13.615000000000002      44.734999999999999      62.239999999999988
   204   1      13.615000000000002      44.734999999999999      66.129999999999995
   205   1      11.670000000000002                  48.625                  48.625
   206   1      13.615000000000002                   46.68                  48.625
   207   1      13.615000000000002                  48.625                   46.68
   208   1      11.670000000000002                   46.68                   50.57
   209   1      11.670000000000002                  48.625      52.515000000000001
   210   1      13.615000000000002                   46.68      52.515000000000001
   211   1      13.615000000000002                  48.625                   50.57
   212   1      11.670000000000002                   46.68      54.460000000000001
   213   1      11.670000000000002                  48.625      56.405000000000001
   214   1      13.615000000000002                   46.68      56.405000000000001
   215   1      13.615000000000002                  48.625      54.460000000000001
   216   1      11.670000000000002                   46.68      58.350000000000001
   217   1      11.670000000000002                  48.625      60.294999999999995
   218   1      13.615000000000002                   46.68      60.294999999999995
   219   1      13.615000000000002                  48.625      58.350000000000001
   220   1      11.670000000000002                   46.68      62.239999999999988
   221   1      11.670000000000002                  48.625      64.184999999999988
   222   1      13.615000000000002                   46.68      64.184999999999988
   223   1      13.615000000000002                  48.625      62.239999999999988
   224   1      11.670000000000002                   46.68      66.129999999999995
   225   1      11.670000000000002                  48.625      68.074999999999989
   226   1      13.615000000000002                   46.68      68.074999999999989
   227   1      13.615000000000002                  48.625      66.129999999999995
   228   1      13.615000000000002                  48.625      70.019999999999996
   229   1      11.670000000000002      52.515000000000001      44.734999999999999
   230   1      13.615000000000002                   50.57      44.734999999999999
   231   1      13.615000000000002      52.515000000000001      42.789999999999999
   232   1      11.670000000000002                   50.57                   46.68
   233   1      11.670000000000002      52.515000000000001                  48.625
   234   1      13.615000000000002                   50.57                  48.625
   235   1      13.615000000000002      52.515000000000001                   46.68
   236   1      11.670000000000002                   50.57                   50.57
   237   1      11.670000000000002      52.515000000000001      52.515000000000001
   238   1      13.615000000000002                   50.57      52.515000000000001
   239   1      13.615000000000002      52.515000000000001                   50.57
   240   1      11.670000000000002                   50.57      54.460000000000001
   241   1      11.670000000000002      52.515000000000001      56.405000000000001
   242   1      13.615000000000002                   50.57      56.405000000000001
   243   1      13.615000000000002      52.515000000000001      54.460000000000001
   244   1      11.670000000000002                   50.57      58.350000000000001
   245   1      11.670000000000002      52.515000000000001      60.294999999999995
   246   1      13.615000000000002                   50.57      60.294999999999995
   247   1      13.615000000000002      52.515000000000001      58.350000000000001
   248   1      11.670000000000002                   50.57      62.239999999999988
   249   1      11.670000000000002      52.515000000000001      64.184999999999988
   250   1      13.615000000000002                   50.57      64.184999999999988
   251   1      13.615000000000002      52.515000000000001      62.239999999999988
   252   1      11.670000000000002                   50.57      66.129999999999995
   253   1      11.670000000000002      52.515000000000001      68.074999999999989
   254   1      13.615000000000002                   50.57      68.074999999999989
   255   1      13.615000000000002      52.515000000000001      66.129999999999995
   256   1      11.670000000000002                   50.57      70.019999999999996
   257   1      11.670000000000002      52.515000000000001      71.964999999999989
   258   1      13.615000000000002                   50.57      71.964999999999989
   259   1      13.615000000000002      52.515000000000001      70.019999999999996
   260   1      13.615000000000002      52.515000000000001      73.909999999999997
   261   1      11.670000000000002      56.405000000000001      40.844999999999999
   262   1      13.615000000000002      54.460000000000001      40.844999999999999
   263   1      13.615000000000002      56.405000000000001      38.899999999999999
   264   1      11.670000000000002      54.460000000000001      42.789999999999999
   265   1      11.670000000000002      56.405000000000001      44.734999999999999
   266   1      13.615000000000002      54.460000000000001      44.734999999999999
   267   1      13.615000000000002      56.405000000000001      42.789999999999999
   268   1      11.670000000000002      54.460000000000001                   46.68
   269   1      11.670000000000002      56.405000000000001                  48.625
   270   1      13.615000000000002      54.460000000000001                  48.625
   271   1      13.615000000000002      56.405000000000001                   46.68
   272   1      11.670000000000002      54.460000000000001                   50.57
   273   1      11.670000000000002      56.405000000000001      52.515000000000001
   274   1      13.615000000000002      54.460000000000001      52.515000000000001
   275   1      13.615000000000002      56.405000000000001                   50.57
   276   1      11.670000000000002      54.460000000000001      54.460000000000001
   277   1      11.670000000000002      56.405000000000001      56.405000000000001
   278   1      13.615000000000002      54.460000000000001      56.405000000000001
   279   1      13.615000000000002      56.405000000000001      54.460000000000001
   280   1      11.670000000000002      54.460000000000001      58.350000000000001
   281   1      11.670000000000002      56.405000000000001      60.294999999999995
   282   1      13.615000000000002      54.460000000000001      60.294999999999995
   283   1      13.615000000000002      56.405000000000001      58.350000000000001
   284   1      11.670000000000002      54.460000000000001      62.239999999999988
   285   1      11.670000000000002      56.405000000000001      64.184999999999988
   286   1      13.615000000000002      54.460000000000001      64.184999999999988
   287   1      13.615000000000002      56.405000000000001      62.239999999999988
   288   1      11.670000000000002      54.460000000000001      66.129999999999995
   289   1      11.670000000000002      56.405000000000001      68.074999999999989
   290   1      13.615000000000002      54.460000000000001      68.074999999999989
   291   1      13.615000000000002      56.405000000000001      66.129999999999995
   292   1      11.670000000000002      54.460000000000001      70.019999999999996
   293   1      11.670000000000002      56.405000000000001      71.964999999999989
   294   1      13.615000000000002      54.460000000000001      71.964999999999989
   295   1      13.615000000000002      56.405000000000001      70.019999999999996
   296   1      11.670000000000002      54.460000000000001      73.909999999999997
   297   1      11.670000000000002      56.405000000000001       75.85499999999999
   298   1      13.615000000000002      54.460000000000001       75.85499999999999
   299   1      13.615000000000002      56.405000000000001      73.909999999999997
   300   1      13.615000000000002      56.405000000000001      77.799999999999997
   301   1      13.615000000000002      58.350000000000001      36.954999999999998
   302   1      11.670000000000002      58.350000000000001      38.899999999999999
   303   1      11.670000000000002      60.294999999999995      40.844999999999999
   304   1      13.615000000000002      58.350000000000001      40.844999999999999
   305   1      13.615000000000002      60.294999999999995      38.899999999999999
   306   1      11.670000000000002      58.350000000000001      42.789999999999999
   307   1      11.670000000000002      60.294999999999995      44.734999999999999
   308   1      13.615000000000002      58.350000000000001      44.734999999999999
   309   1      13.615000000000002      60.294999999999995      42.789999999999999
   310   1      11.670000000000002      58.350000000000001                   46.68
   311   1      11.670000000000002      60.294999999999995                  48.625
   312   1      13.615000000000002      58.350000000000001                  48.625
   313   1      13.615000000000002      60.294999999999995                   46.68
   314   1      11.670000000000002      58.350000000000001                   50.57
   315   1      11.670000000000002      60.294999999999995      52.515000000000001
   316   1      13.615000000000002      58.350000000000001      52.515000000000001
   317   1      13.615000000000002      60.294999999999995                   50.57
   318   1      11.670000000000002      58.350000000000001      54.460000000000001
   319   1      11.670000000000002      60.294999999999995      56.405000000000001
   320   1      13.615000000000002      58.350000000000001      56.405000000000001
   321   1      13.615000000000002      60.294999999999995      54.460000000000001
   322   1      11.670000000000002      58.350000000000001      58.350000000000001
   323   1      11.670000000000002      60.294999999999995      60.294999999999995
   324   1      13.615000000000002      58.350000000000001      60.294999999999995
   325   1      13.615000000000002      60.294999999999995      58.350000000000001
   326   1      11.670000000000002      58.350000000000001      62.239999999999988
   327   1      11.670000000000002      60.294999999999995      64.184999999999988
   328   1      13.615000000000002      58.350000000000001      64.184999999999988
   329   1      13.615000000000002      60.294999999999995      62.239999999999988
   330   1      11.670000000000002      58.350000000000001      66.129999999999995
   331   1      11.670000000000002      60.294999999999995      68.074999999999989
   332   1      13.615000000000002      58.350000000000001      68.074999999999989
   333   1      13.615000000000002      60.294999999999995      66.129999999999995
   334   1      11.670000000000002      58.350000000000001      70.019999999999996
   335   1      11.670000000000002      60.294999999999995      71.964999999999989
   336   1      13.615000000000002      58.350000000000001      71.964999999999989
   337   1      13.615000000000002      60.294999999999995      70.019999999999996
   338   1      11.670000000000002      58.350000000000001      73.909999999999997
   339   1      11.670000000000002      60.294999999999995       75.85499999999999
   340   1      13.615000000000002      58.350000000000001       75.85499999999999
   341   1      13.615000000000002      60.294999999999995      73.909999999999997
   342   1      11.670000000000002      58.350000000000001      77.799999999999997
   343   1      13.615000000000002      58.350000000000001       79.74499999999999
   344   1      13.615000000000002      60.294999999999995      77.799999999999997
   345   1      13.615000000000002      62.239999999999988      40.844999999999999
   346   1      11.670000000000002      62.239999999999988      42.789999999999999
   347   1      11.670000000000002      64.184999999999988      44.734999999999999
   348   1      13.615000000000002      62.239999999999988      44.734999999999999
   349   1      13.615000000000002      64.184999999999988      42.789999999999999
   350   1      11.670000000000002      62.239999999999988                   46.68
   351   1      11.670000000000002      64.184999999999988                  48.625
   352   1      13.615000000000002      62.239999999999988                  48.625
   353   1      13.615000000000002      64.184999999999988                   46.68
   354   1      11.670000000000002      62.239999999999988                   50.57
   355   1      11.670000000000002      64.184999999999988      52.515000000000001
   356   1      13.615000000000002      62.239999999999988      52.515000000000001
   357   1      13.615000000000002      64.184999999999988                   50.57
   358   1      11.670000000000002      62.239999999999988      54.460000000000001