model_files/CuAu/CuAu_30000/CuAu_110/CuAu_110_fcc_31263_temp.data (written by ASE) 

31263 	 atoms 
2  atom types
0.0                     112  xlo xhi
0.0                     112  ylo yhi
0.0                     112  zlo zhi


Atoms 

     1   1  7.1054273576010019e-15      54.230000000000004      54.230000000000004
     2   1      1.8700000000000045      52.359999999999999      54.230000000000004
     3   1      1.8700000000000045      54.230000000000004      52.359999999999999
     4   1  7.1054273576010019e-15      54.230000000000004      57.970000000000006
     5   1      1.8700000000000045      52.359999999999999      57.970000000000006
     6   1      1.8700000000000045      54.230000000000004      56.100000000000001
     7   1      1.8700000000000045      54.230000000000004      59.840000000000011
     8   1  7.1054273576010019e-15      57.970000000000006      54.230000000000004
     9   1      1.8700000000000045      56.100000000000001      54.230000000000004
    10   1      1.8700000000000045      57.970000000000006      52.359999999999999
    11   1  7.1054273576010019e-15      56.100000000000001      56.100000000000001
    12   1  7.1054273576010019e-15      57.970000000000006      57.970000000000006
    13   1      1.8700000000000045      56.100000000000001      57.970000000000006
    14   1      1.8700000000000045      57.970000000000006      56.100000000000001
    15   1      1.8700000000000045      57.970000000000006      59.840000000000011
    16   1      1.8700000000000045      59.840000000000011      54.230000000000004
    17   1      1.8700000000000045      59.840000000000011      57.970000000000006
    18   1      3.7400000000000091      50.489999999999995      50.489999999999995
    19   1      5.6100000000000056      48.619999999999997      50.489999999999995
    20   1      5.6100000000000056      50.489999999999995      48.619999999999997
    21   1      3.7400000000000091      50.489999999999995      54.230000000000004
    22   1      5.6100000000000056      48.619999999999997      54.230000000000004
    23   1      5.6100000000000056      50.489999999999995      52.359999999999999
    24   1      3.7400000000000091      50.489999999999995      57.970000000000006
    25   1      5.6100000000000056      48.619999999999997      57.970000000000006
    26   1      5.6100000000000056      50.489999999999995      56.100000000000001
    27   1      3.7400000000000091      50.489999999999995      61.710000000000001
    28   1      5.6100000000000056      48.619999999999997      61.710000000000001
    29   1      5.6100000000000056      50.489999999999995      59.840000000000011
    30   1      5.6100000000000056      50.489999999999995      63.580000000000005
    31   1      3.7400000000000091      54.230000000000004      50.489999999999995
    32   1      5.6100000000000056      52.359999999999999      50.489999999999995
    33   1      5.6100000000000056      54.230000000000004      48.619999999999997
    34   1      3.7400000000000091      52.359999999999999      52.359999999999999
    35   1      3.7400000000000091      54.230000000000004      54.230000000000004
    36   1      5.6100000000000056      52.359999999999999      54.230000000000004
    37   1      5.6100000000000056      54.230000000000004      52.359999999999999
    38   1      3.7400000000000091      52.359999999999999      56.100000000000001
    39   1      3.7400000000000091      54.230000000000004      57.970000000000006
    40   1      5.6100000000000056      52.359999999999999      57.970000000000006
    41   1      5.6100000000000056      54.230000000000004      56.100000000000001
    42   1      3.7400000000000091      52.359999999999999      59.840000000000011
    43   1      3.7400000000000091      54.230000000000004      61.710000000000001
    44   1      5.6100000000000056      52.359999999999999      61.710000000000001
    45   1      5.6100000000000056      54.230000000000004      59.840000000000011
    46   1      5.6100000000000056      54.230000000000004      63.580000000000005
    47   1      3.7400000000000091      57.970000000000006      50.489999999999995
    48   1      5.6100000000000056      56.100000000000001      50.489999999999995
    49   1      5.6100000000000056      57.970000000000006      48.619999999999997
    50   1      3.7400000000000091      56.100000000000001      52.359999999999999
    51   1      3.7400000000000091      57.970000000000006      54.230000000000004
    52   1      5.6100000000000056      56.100000000000001      54.230000000000004
    53   1      5.6100000000000056      57.970000000000006      52.359999999999999
    54   1      3.7400000000000091      56.100000000000001      56.100000000000001
    55   1      3.7400000000000091      57.970000000000006      57.970000000000006
    56   1      5.6100000000000056      56.100000000000001      57.970000000000006
    57   1      5.6100000000000056      57.970000000000006      56.100000000000001
    58   1      3.7400000000000091      56.100000000000001      59.840000000000011
    59   1      3.7400000000000091      57.970000000000006      61.710000000000001
    60   1      5.6100000000000056      56.100000000000001      61.710000000000001
    61   1      5.6100000000000056      57.970000000000006      59.840000000000011
    62   1      5.6100000000000056      57.970000000000006      63.580000000000005
    63   1      3.7400000000000091      61.710000000000001      50.489999999999995
    64   1      5.6100000000000056      59.840000000000011      50.489999999999995
    65   1      5.6100000000000056      61.710000000000001      48.619999999999997
    66   1      3.7400000000000091      59.840000000000011      52.359999999999999
    67   1      3.7400000000000091      61.710000000000001      54.230000000000004
    68   1      5.6100000000000056      59.840000000000011      54.230000000000004
    69   1      5.6100000000000056      61.710000000000001      52.359999999999999
    70   1      3.7400000000000091      59.840000000000011      56.100000000000001
    71   1      3.7400000000000091      61.710000000000001      57.970000000000006
    72   1      5.6100000000000056      59.840000000000011      57.970000000000006
    73   1      5.6100000000000056      61.710000000000001      56.100000000000001
    74   1      3.7400000000000091      59.840000000000011      59.840000000000011
    75   1      3.7400000000000091      61.710000000000001      61.710000000000001
    76   1      5.6100000000000056      59.840000000000011      61.710000000000001
    77   1      5.6100000000000056      61.710000000000001      59.840000000000011
    78   1      5.6100000000000056      61.710000000000001      63.580000000000005
    79   1      5.6100000000000056      63.580000000000005      50.489999999999995
    80   1      5.6100000000000056      63.580000000000005      54.230000000000004
    81   1      5.6100000000000056      63.580000000000005      57.970000000000006
    82   1      5.6100000000000056      63.580000000000005      61.710000000000001
    83   1       7.480000000000004                   46.75                   46.75
    84   1      9.3500000000000085       44.88000000000001                   46.75
    85   1      9.3500000000000085                   46.75       44.88000000000001
    86   1       7.480000000000004                   46.75      50.489999999999995
    87   1      9.3500000000000085       44.88000000000001      50.489999999999995
    88   1      9.3500000000000085                   46.75      48.619999999999997
    89   1       7.480000000000004                   46.75      54.230000000000004
    90   1      9.3500000000000085       44.88000000000001      54.230000000000004
    91   1      9.3500000000000085                   46.75      52.359999999999999
    92   1       7.480000000000004                   46.75      57.970000000000006
    93   1      9.3500000000000085       44.88000000000001      57.970000000000006
    94   1      9.3500000000000085                   46.75      56.100000000000001
    95   1       7.480000000000004                   46.75      61.710000000000001
    96   1      9.3500000000000085       44.88000000000001      61.710000000000001
    97   1      9.3500000000000085                   46.75      59.840000000000011
    98   1       7.480000000000004                   46.75      65.450000000000017
    99   1      9.3500000000000085       44.88000000000001      65.450000000000017
   100   1      9.3500000000000085                   46.75      63.580000000000005
   101   1      9.3500000000000085                   46.75      67.320000000000007
   102   1       7.480000000000004      50.489999999999995                   46.75
   103   1      9.3500000000000085      48.619999999999997                   46.75
   104   1      9.3500000000000085      50.489999999999995       44.88000000000001
   105   1       7.480000000000004      48.619999999999997      48.619999999999997
   106   1       7.480000000000004      50.489999999999995      50.489999999999995
   107   1      9.3500000000000085      48.619999999999997      50.489999999999995
   108   1      9.3500000000000085      50.489999999999995      48.619999999999997
   109   1       7.480000000000004      48.619999999999997      52.359999999999999
   110   1       7.480000000000004      50.489999999999995      54.230000000000004
   111   1      9.3500000000000085      48.619999999999997      54.230000000000004
   112   1      9.3500000000000085      50.489999999999995      52.359999999999999
   113   1       7.480000000000004      48.619999999999997      56.100000000000001
   114   1       7.480000000000004      50.489999999999995      57.970000000000006
   115   1      9.3500000000000085      48.619999999999997      57.970000000000006
   116   1      9.3500000000000085      50.489999999999995      56.100000000000001
   117   1       7.480000000000004      48.619999999999997      59.840000000000011
   118   1       7.480000000000004      50.489999999999995      61.710000000000001
   119   1      9.3500000000000085      48.619999999999997      61.710000000000001
   120   1      9.3500000000000085      50.489999999999995      59.840000000000011
   121   1       7.480000000000004      48.619999999999997      63.580000000000005
   122   1       7.480000000000004      50.489999999999995      65.450000000000017
   123   1      9.3500000000000085      48.619999999999997      65.450000000000017
   124   1      9.3500000000000085      50.489999999999995      63.580000000000005
   125   1      9.3500000000000085      50.489999999999995      67.320000000000007
   126   1       7.480000000000004      54.230000000000004                   46.75
   127   1      9.3500000000000085      52.359999999999999                   46.75
   128   1      9.3500000000000085      54.230000000000004       44.88000000000001
   129   1       7.480000000000004      52.359999999999999      48.619999999999997
   130   1       7.480000000000004      54.230000000000004      50.489999999999995
   131   1      9.3500000000000085      52.359999999999999      50.489999999999995
   132   1      9.3500000000000085      54.230000000000004      48.619999999999997
   133   1       7.480000000000004      52.359999999999999      52.359999999999999
   134   1       7.480000000000004      54.230000000000004      54.230000000000004
   135   1      9.3500000000000085      52.359999999999999      54.230000000000004
   136   1      9.3500000000000085      54.230000000000004      52.359999999999999
   137   1       7.480000000000004      52.359999999999999      56.100000000000001
   138   1       7.480000000000004      54.230000000000004      57.970000000000006
   139   1      9.3500000000000085      52.359999999999999      57.970000000000006
   140   1      9.3500000000000085      54.230000000000004      56.100000000000001
   141   1       7.480000000000004      52.359999999999999      59.840000000000011
   142   1       7.480000000000004      54.230000000000004      61.710000000000001
   143   1      9.3500000000000085      52.359999999999999      61.710000000000001
   144   1      9.3500000000000085      54.230000000000004      59.840000000000011
   145   1       7.480000000000004      52.359999999999999      63.580000000000005
   146   1       7.480000000000004      54.230000000000004      65.450000000000017
   147   1      9.3500000000000085      52.359999999999999      65.450000000000017
   148   1      9.3500000000000085      54.230000000000004      63.580000000000005
   149   1      9.3500000000000085      54.230000000000004      67.320000000000007
   150   1       7.480000000000004      57.970000000000006                   46.75
   151   1      9.3500000000000085      56.100000000000001                   46.75
   152   1      9.3500000000000085      57.970000000000006       44.88000000000001
   153   1       7.480000000000004      56.100000000000001      48.619999999999997
   154   1       7.480000000000004      57.970000000000006      50.489999999999995
   155   1      9.3500000000000085      56.100000000000001      50.489999999999995
   156   1      9.3500000000000085      57.970000000000006      48.619999999999997
   157   1       7.480000000000004      56.100000000000001      52.359999999999999
   158   1       7.480000000000004      57.970000000000006      54.230000000000004
   159   1      9.3500000000000085      56.100000000000001      54.230000000000004
   160   1      9.3500000000000085      57.970000000000006      52.359999999999999
   161   1       7.480000000000004      56.100000000000001      56.100000000000001
   162   1       7.480000000000004      57.970000000000006      57.970000000000006
   163   1      9.3500000000000085      56.100000000000001      57.970000000000006
   164   1      9.3500000000000085      57.970000000000006      56.100000000000001
   165   1       7.480000000000004      56.100000000000001      59.840000000000011
   166   1       7.480000000000004      57.970000000000006      61.710000000000001
   167   1      9.3500000000000085      56.100000000000001      61.710000000000001
   168   1      9.3500000000000085      57.970000000000006      59.840000000000011
   169   1       7.480000000000004      56.100000000000001      63.580000000000005
   170   1       7.480000000000004      57.970000000000006      65.450000000000017
   171   1      9.3500000000000085      56.100000000000001      65.450000000000017
   172   1      9.3500000000000085      57.970000000000006      63.580000000000005
   173   1      9.3500000000000085      57.970000000000006      67.320000000000007
   174   1       7.480000000000004      61.710000000000001                   46.75
   175   1      9.3500000000000085      59.840000000000011                   46.75
   176   1      9.3500000000000085      61.710000000000001       44.88000000000001
   177   1       7.480000000000004      59.840000000000011      48.619999999999997
   178   1       7.480000000000004      61.710000000000001      50.489999999999995
   179   1      9.3500000000000085      59.840000000000011      50.489999999999995
   180   1      9.3500000000000085      61.710000000000001      48.619999999999997
   181   1       7.480000000000004      59.840000000000011      52.359999999999999
   182   1       7.480000000000004      61.710000000000001      54.230000000000004
   183   1      9.3500000000000085      59.840000000000011      54.230000000000004
   184   1      9.3500000000000085      61.710000000000001      52.359999999999999
   185   1       7.480000000000004      59.840000000000011      56.100000000000001
   186   1       7.480000000000004      61.710000000000001      57.970000000000006
   187   1      9.3500000000000085      59.840000000000011      57.970000000000006
   188   1      9.3500000000000085      61.710000000000001      56.100000000000001
   189   1       7.480000000000004      59.840000000000011      59.840000000000011
   190   1       7.480000000000004      61.710000000000001      61.710000000000001
   191   1      9.3500000000000085      59.840000000000011      61.710000000000001
   192   1      9.3500000000000085      61.710000000000001      59.840000000000011
   193   1       7.480000000000004      59.840000000000011      63.580000000000005
   194   1       7.480000000000004      61.710000000000001      65.450000000000017
   195   1      9.3500000000000085      59.840000000000011      65.450000000000017
   196   1      9.3500000000000085      61.710000000000001      63.580000000000005
   197   1      9.3500000000000085      61.710000000000001      67.320000000000007
   198   1       7.480000000000004      65.450000000000017                   46.75
   199   1      9.3500000000000085      63.580000000000005                   46.75
   200   1      9.3500000000000085      65.450000000000017       44.88000000000001
   201   1       7.480000000000004      63.580000000000005      48.619999999999997
   202   1       7.480000000000004      65.450000000000017      50.489999999999995
   203   1      9.3500000000000085      63.580000000000005      50.489999999999995
   204   1      9.3500000000000085      65.450000000000017      48.619999999999997
   205   1       7.480000000000004      63.580000000000005      52.359999999999999
   206   1       7.480000000000004      65.450000000000017      54.230000000000004
   207   1      9.3500000000000085      63.580000000000005      54.230000000000004
   208   1      9.3500000000000085      65.450000000000017      52.359999999999999
   209   1       7.480000000000004      63.580000000000005      56.100000000000001
   210   1       7.480000000000004      65.450000000000017      57.970000000000006
   211   1      9.3500000000000085      63.580000000000005      57.970000000000006
   212   1      9.3500000000000085      65.450000000000017      56.100000000000001
   213   1       7.480000000000004      63.580000000000005      59.840000000000011
   214   1       7.480000000000004      65.450000000000017      61.710000000000001
   215   1      9.3500000000000085      63.580000000000005      61.710000000000001
   216   1      9.3500000000000085      65.450000000000017      59.840000000000011
   217   1       7.480000000000004      63.580000000000005      63.580000000000005
   218   1       7.480000000000004      65.450000000000017      65.450000000000017
   219   1      9.3500000000000085      63.580000000000005      65.450000000000017
   220   1      9.3500000000000085      65.450000000000017      63.580000000000005
   221   1      9.3500000000000085      65.450000000000017      67.320000000000007
   222   1      9.3500000000000085      67.320000000000007                   46.75
   223   1      9.3500000000000085      67.320000000000007      50.489999999999995
   224   1      9.3500000000000085      67.320000000000007      54.230000000000004
   225   1      9.3500000000000085      67.320000000000007      57.970000000000006
   226   1      9.3500000000000085      67.320000000000007      61.710000000000001
   227   1      9.3500000000000085      67.320000000000007      65.450000000000017
   228   1      11.220000000000006      43.010000000000005      43.010000000000005
   229   1      13.090000000000002      41.140000000000008      43.010000000000005
   230   1      13.090000000000002      43.010000000000005      41.140000000000008
   231   1      11.220000000000006      43.010000000000005                   46.75
   232   1      13.090000000000002      41.140000000000008                   46.75
   233   1      13.090000000000002      43.010000000000005       44.88000000000001
   234   1      11.220000000000006      43.010000000000005      50.489999999999995
   235   1      13.090000000000002      41.140000000000008      50.489999999999995
   236   1      13.090000000000002      43.010000000000005      48.619999999999997
   237   1      11.220000000000006      43.010000000000005      54.230000000000004
   238   1      13.090000000000002      41.140000000000008      54.230000000000004
   239   1      13.090000000000002      43.010000000000005      52.359999999999999
   240   1      11.220000000000006      43.010000000000005      57.970000000000006
   241   1      13.090000000000002      41.140000000000008      57.970000000000006
   242   1      13.090000000000002      43.010000000000005      56.100000000000001
   243   1      11.220000000000006      43.010000000000005      61.710000000000001
   244   1      13.090000000000002      41.140000000000008      61.710000000000001
   245   1      13.090000000000002      43.010000000000005      59.840000000000011
   246   1      11.220000000000006      43.010000000000005      65.450000000000017
   247   1      13.090000000000002      41.140000000000008      65.450000000000017
   248   1      13.090000000000002      43.010000000000005      63.580000000000005
   249   1      11.220000000000006      43.010000000000005      69.190000000000012
   250   1      13.090000000000002      41.140000000000008      69.190000000000012
   251   1      13.090000000000002      43.010000000000005      67.320000000000007
   252   1      13.090000000000002      43.010000000000005      71.060000000000016
   253   1      11.220000000000006                   46.75      43.010000000000005
   254   1      13.090000000000002       44.88000000000001      43.010000000000005
   255   1      13.090000000000002                   46.75      41.140000000000008
   256   1      11.220000000000006       44.88000000000001       44.88000000000001
   257   1      11.220000000000006                   46.75                   46.75
   258   1      13.090000000000002       44.88000000000001                   46.75
   259   1      13.090000000000002                   46.75       44.88000000000001
   260   1      11.220000000000006       44.88000000000001      48.619999999999997
   261   1      11.220000000000006                   46.75      50.489999999999995
   262   1      13.090000000000002       44.88000000000001      50.489999999999995
   263   1      13.090000000000002                   46.75      48.619999999999997
   264   1      11.220000000000006       44.88000000000001      52.359999999999999
   265   1      11.220000000000006                   46.75      54.230000000000004
   266   1      13.090000000000002       44.88000000000001      54.230000000000004
   267   1      13.090000000000002                   46.75      52.359999999999999
   268   1      11.220000000000006       44.88000000000001      56.100000000000001
   269   1      11.220000000000006                   46.75      57.970000000000006
   270   1      13.090000000000002       44.88000000000001      57.970000000000006
   271   1      13.090000000000002                   46.75      56.100000000000001
   272   1      11.220000000000006       44.88000000000001      59.840000000000011
   273   1      11.220000000000006                   46.75      61.710000000000001
   274   1      13.090000000000002       44.88000000000001      61.710000000000001
   275   1      13.090000000000002                   46.75      59.840000000000011
   276   1      11.220000000000006       44.88000000000001      63.580000000000005
   277   1      11.220000000000006                   46.75      65.450000000000017
   278   1      13.090000000000002       44.88000000000001      65.450000000000017
   279   1      13.090000000000002                   46.75      63.580000000000005
   280   1      11.220000000000006       44.88000000000001      67.320000000000007
   281   1      11.220000000000006                   46.75      69.190000000000012
   282   1      13.090000000000002       44.88000000000001      69.190000000000012
   283   1      13.090000000000002                   46.75      67.320000000000007
   284   1      13.090000000000002                   46.75      71.060000000000016
   285   1      11.220000000000006      50.489999999999995      43.010000000000005
   286   1      13.090000000000002      48.619999999999997      43.010000000000005
   287   1      13.090000000000002      50.489999999999995      41.140000000000008
   288   1      11.220000000000006      48.619999999999997       44.88000000000001
   289   1      11.220000000000006      50.489999999999995                   46.75
   290   1      13.090000000000002      48.619999999999997                   46.75
   291   1      13.090000000000002      50.489999999999995       44.88000000000001
   292   1      11.220000000000006      48.619999999999997      48.619999999999997
   293   1      11.220000000000006      50.489999999999995      50.489999999999995
   294   1      13.090000000000002      48.619999999999997      50.489999999999995
   295   1      13.090000000000002      50.489999999999995      48.619999999999997
   296   1      11.220000000000006      48.619999999999997      52.359999999999999
   297   1      11.220000000000006      50.489999999999995      54.230000000000004
   298   1      13.090000000000002      48.619999999999997      54.230000000000004
   299   1      13.090000000000002      50.489999999999995      52.359999999999999
   300   1      11.220000000000006      48.619999999999997      56.100000000000001
   301   1      11.220000000000006      50.489999999999995      57.970000000000006
   302   1      13.090000000000002      48.619999999999997      57.970000000000006
   303   1      13.090000000000002      50.489999999999995      56.100000000000001
   304   1      11.220000000000006      48.619999999999997      59.840000000000011
   305   1      11.220000000000006      50.489999999999995      61.710000000000001
   306   1      13.090000000000002      48.619999999999997      61.710000000000001
   307   1      13.090000000000002      50.489999999999995      59.840000000000011
   308   1      11.220000000000006      48.619999999999997      63.580000000000005
   309   1      11.220000000000006      50.489999999999995      65.450000000000017
   310   1      13.090000000000002      48.619999999999997      65.450000000000017
   311   1      13.090000000000002      50.489999999999995      63.580000000000005
   312   1      11.220000000000006      48.619999999999997      67.320000000000007
   313   1      11.220000000000006      50.489999999999995      69.190000000000012
   314   1      13.090000000000002      48.619999999999997      69.190000000000012
   315   1      13.090000000000002      50.489999999999995      67.320000000000007
   316   1      13.090000000000002      50.489999999999995      71.060000000000016
   317   1      11.220000000000006      54.230000000000004      43.010000000000005
   318   1      13.090000000000002      52.359999999999999      43.010000000000005
   319   1      13.090000000000002      54.230000000000004      41.140000000000008
   320   1      11.220000000000006      52.359999999999999       44.88000000000001
   321   1      11.220000000000006      54.230000000000004                   46.75
   322   1      13.090000000000002      52.359999999999999                   46.75
   323   1      13.090000000000002      54.230000000000004       44.88000000000001
   324   1      11.220000000000006      52.359999999999999      48.619999999999997
   325   1      11.220000000000006      54.230000000000004      50.489999999999995
   326   1      13.090000000000002      52.359999999999999      50.489999999999995
   327   1      13.090000000000002      54.230000000000004      48.619999999999997
   328   1      11.220000000000006      52.359999999999999      52.359999999999999
   329   1      11.220000000000006      54.230000000000004      54.230000000000004
   330   1      13.090000000000002      52.359999999999999      54.230000000000004
   331   1      13.090000000000002      54.230000000000004      52.359999999999999
   332   1      11.220000000000006      52.359999999999999      56.100000000000001
   333   1      11.220000000000006      54.230000000000004      57.970000000000006
   334   1      13.090000000000002      52.359999999999999      57.970000000000006
   335   1      13.090000000000002      54.230000000000004      56.100000000000001
   336   1      11.220000000000006      52.359999999999999      59.840000000000011
   337   1      11.220000000000006      54.230000000000004      61.710000000000001
   338   1      13.090000000000002      52.359999999999999      61.710000000000001
   339   1      13.090000000000002      54.230000000000004      59.840000000000011
   340   1      11.220000000000006      52.359999999999999      63.580000000000005
   341   1      11.220000000000006      54.230000000000004      65.450000000000017
   342   1      13.090000000000002      52.359999999999999      65.450000000000017
   343   1      13.090000000000002      54.230000000000004      63.580000000000005
   344   1      11.220000000000006      52.359999999999999      67.320000000000007
   345   1      11.220000000000006      54.230000000000004      69.190000000000012
   346   1      13.090000000000002      52.359999999999999      69.190000000000012
   347   1      13.090000000000002      54.230000000000004      67.320000000000007
   348   1      13.090000000000002      54.230000000000004      71.060000000000016
   349   1      11.220000000000006      57.970000000000006      43.010000000000005
   350   1      13.090000000000002      56.100000000000001      43.010000000000005
   351   1      13.090000000000002      57.970000000000006      41.140000000000008
   352   1      11.220000000000006      56.100000000000001       44.88000000000001
   353   1      11.220000000000006      57.970000000000006                   46.75
   354   1      13.090000000000002      56.100000000000001                   46.75
   355   1      13.090000000000002      57.970000000000006       44.88000000000001
   356   1      11.220000000000006      56.100000000000001      48.619999999999997
   357   1      11.220000000000006      57.970000000000006      50.489999999999995
   358   1      13.090000000000002      56.100000000000001      50.489999999999995