model_files/CuNi/CuNi_30000/CuNi_432/CuNi_432_fcc_29911_temp.data (written by ASE) 

29911 	 atoms 
2  atom types
0.0                     106  xlo xhi
0.0                     106  ylo yhi
0.0                     106  zlo zhi


Atoms 

     1   1      1.7829999999999939      51.707000000000001      53.489999999999995
     2   1      1.7829999999999939      53.489999999999995      51.707000000000001
     3   1                       0      53.489999999999995      53.489999999999995
     4   1      1.7829999999999939      53.489999999999995      55.273000000000003
     5   1      1.7829999999999939      55.273000000000003      53.489999999999995
     6   1      5.3489999999999966      44.575000000000003      53.489999999999995
     7   1      3.5659999999999954      48.140999999999998      51.707000000000001
     8   1      5.3489999999999966      46.358000000000004      51.707000000000001
     9   1      5.3489999999999966      48.140999999999998      49.923999999999992
    10   1      3.5659999999999954      48.140999999999998      55.273000000000003
    11   1      5.3489999999999966      46.358000000000004      55.273000000000003
    12   1      5.3489999999999966      48.140999999999998      53.489999999999995
    13   1      5.3489999999999966      48.140999999999998      57.056000000000012
    14   1      3.5659999999999954      51.707000000000001      48.140999999999998
    15   1      5.3489999999999966      49.923999999999992      48.140999999999998
    16   1      5.3489999999999966      51.707000000000001      46.358000000000004
    17   1      3.5659999999999954      49.923999999999992      49.923999999999992
    18   1      3.5659999999999954      51.707000000000001      51.707000000000001
    19   1      5.3489999999999966      49.923999999999992      51.707000000000001
    20   1      5.3489999999999966      51.707000000000001      49.923999999999992
    21   1      3.5659999999999954      49.923999999999992      53.489999999999995
    22   1      3.5659999999999954      51.707000000000001      55.273000000000003
    23   1      5.3489999999999966      49.923999999999992      55.273000000000003
    24   1      5.3489999999999966      51.707000000000001      53.489999999999995
    25   1      3.5659999999999954      49.923999999999992      57.056000000000012
    26   1      3.5659999999999954      51.707000000000001      58.839000000000006
    27   1      5.3489999999999966      49.923999999999992      58.839000000000006
    28   1      5.3489999999999966      51.707000000000001      57.056000000000012
    29   1      5.3489999999999966      51.707000000000001                  60.622
    30   1      5.3489999999999966      53.489999999999995      44.575000000000003
    31   1      3.5659999999999954      55.273000000000003      48.140999999999998
    32   1      5.3489999999999966      53.489999999999995      48.140999999999998
    33   1      5.3489999999999966      55.273000000000003      46.358000000000004
    34   1      3.5659999999999954      53.489999999999995      49.923999999999992
    35   1      3.5659999999999954      55.273000000000003      51.707000000000001
    36   1      5.3489999999999966      53.489999999999995      51.707000000000001
    37   1      5.3489999999999966      55.273000000000003      49.923999999999992
    38   1      3.5659999999999954      53.489999999999995      53.489999999999995
    39   1      3.5659999999999954      55.273000000000003      55.273000000000003
    40   1      5.3489999999999966      53.489999999999995      55.273000000000003
    41   1      5.3489999999999966      55.273000000000003      53.489999999999995
    42   1      3.5659999999999954      53.489999999999995      57.056000000000012
    43   1      3.5659999999999954      55.273000000000003      58.839000000000006
    44   1      5.3489999999999966      53.489999999999995      58.839000000000006
    45   1      5.3489999999999966      55.273000000000003      57.056000000000012
    46   1      5.3489999999999966      53.489999999999995      62.405000000000001
    47   1      5.3489999999999966      55.273000000000003                  60.622
    48   1      5.3489999999999966      57.056000000000012      48.140999999999998
    49   1      3.5659999999999954      57.056000000000012      49.923999999999992
    50   1      3.5659999999999954      58.839000000000006      51.707000000000001
    51   1      5.3489999999999966      57.056000000000012      51.707000000000001
    52   1      5.3489999999999966      58.839000000000006      49.923999999999992
    53   1      3.5659999999999954      57.056000000000012      53.489999999999995
    54   1      3.5659999999999954      58.839000000000006      55.273000000000003
    55   1      5.3489999999999966      57.056000000000012      55.273000000000003
    56   1      5.3489999999999966      58.839000000000006      53.489999999999995
    57   1      3.5659999999999954      57.056000000000012      57.056000000000012
    58   1      5.3489999999999966      57.056000000000012      58.839000000000006
    59   1      5.3489999999999966      58.839000000000006      57.056000000000012
    60   1      5.3489999999999966                  60.622      51.707000000000001
    61   1      5.3489999999999966                  60.622      55.273000000000003
    62   1      5.3489999999999966      62.405000000000001      53.489999999999995
    63   1      8.9149999999999991                  41.009      53.489999999999995
    64   1      8.9149999999999991      44.575000000000003      46.358000000000004
    65   1      7.1319999999999979      44.575000000000003      51.707000000000001
    66   1      8.9149999999999991      42.792000000000002      51.707000000000001
    67   1      8.9149999999999991      44.575000000000003      49.923999999999992
    68   1      7.1319999999999979      42.792000000000002      53.489999999999995
    69   1      7.1319999999999979      44.575000000000003      55.273000000000003
    70   1      8.9149999999999991      42.792000000000002      55.273000000000003
    71   1      8.9149999999999991      44.575000000000003      53.489999999999995
    72   1      8.9149999999999991      44.575000000000003      57.056000000000012
    73   1      8.9149999999999991      44.575000000000003                  60.622
    74   1      8.9149999999999991      46.358000000000004      44.575000000000003
    75   1      7.1319999999999979      48.140999999999998      48.140999999999998
    76   1      8.9149999999999991      46.358000000000004      48.140999999999998
    77   1      8.9149999999999991      48.140999999999998      46.358000000000004
    78   1      7.1319999999999979      46.358000000000004      49.923999999999992
    79   1      7.1319999999999979      48.140999999999998      51.707000000000001
    80   1      8.9149999999999991      46.358000000000004      51.707000000000001
    81   1      8.9149999999999991      48.140999999999998      49.923999999999992
    82   1      7.1319999999999979      46.358000000000004      53.489999999999995
    83   1      7.1319999999999979      48.140999999999998      55.273000000000003
    84   1      8.9149999999999991      46.358000000000004      55.273000000000003
    85   1      8.9149999999999991      48.140999999999998      53.489999999999995
    86   1      7.1319999999999979      46.358000000000004      57.056000000000012
    87   1      7.1319999999999979      48.140999999999998      58.839000000000006
    88   1      8.9149999999999991      46.358000000000004      58.839000000000006
    89   1      8.9149999999999991      48.140999999999998      57.056000000000012
    90   1      8.9149999999999991      46.358000000000004      62.405000000000001
    91   1      8.9149999999999991      48.140999999999998                  60.622
    92   1      7.1319999999999979      51.707000000000001      44.575000000000003
    93   1      8.9149999999999991      49.923999999999992      44.575000000000003
    94   1      8.9149999999999991      51.707000000000001      42.792000000000002
    95   1      7.1319999999999979      49.923999999999992      46.358000000000004
    96   1      7.1319999999999979      51.707000000000001      48.140999999999998
    97   1      8.9149999999999991      49.923999999999992      48.140999999999998
    98   1      8.9149999999999991      51.707000000000001      46.358000000000004
    99   1      7.1319999999999979      49.923999999999992      49.923999999999992
   100   1      7.1319999999999979      51.707000000000001      51.707000000000001
   101   1      8.9149999999999991      49.923999999999992      51.707000000000001
   102   1      8.9149999999999991      51.707000000000001      49.923999999999992
   103   1      7.1319999999999979      49.923999999999992      53.489999999999995
   104   1      7.1319999999999979      51.707000000000001      55.273000000000003
   105   1      8.9149999999999991      49.923999999999992      55.273000000000003
   106   1      8.9149999999999991      51.707000000000001      53.489999999999995
   107   1      7.1319999999999979      49.923999999999992      57.056000000000012
   108   1      7.1319999999999979      51.707000000000001      58.839000000000006
   109   1      8.9149999999999991      49.923999999999992      58.839000000000006
   110   1      8.9149999999999991      51.707000000000001      57.056000000000012
   111   1      7.1319999999999979      49.923999999999992                  60.622
   112   1      7.1319999999999979      51.707000000000001      62.405000000000001
   113   1      8.9149999999999991      49.923999999999992      62.405000000000001
   114   1      8.9149999999999991      51.707000000000001                  60.622
   115   1      8.9149999999999991      51.707000000000001      64.188000000000002
   116   1      8.9149999999999991      53.489999999999995                  41.009
   117   1      7.1319999999999979      53.489999999999995      42.792000000000002
   118   1      7.1319999999999979      55.273000000000003      44.575000000000003
   119   1      8.9149999999999991      53.489999999999995      44.575000000000003
   120   1      8.9149999999999991      55.273000000000003      42.792000000000002
   121   1      7.1319999999999979      53.489999999999995      46.358000000000004
   122   1      7.1319999999999979      55.273000000000003      48.140999999999998
   123   1      8.9149999999999991      53.489999999999995      48.140999999999998
   124   1      8.9149999999999991      55.273000000000003      46.358000000000004
   125   1      7.1319999999999979      53.489999999999995      49.923999999999992
   126   1      7.1319999999999979      55.273000000000003      51.707000000000001
   127   1      8.9149999999999991      53.489999999999995      51.707000000000001
   128   1      8.9149999999999991      55.273000000000003      49.923999999999992
   129   1      7.1319999999999979      53.489999999999995      53.489999999999995
   130   1      7.1319999999999979      55.273000000000003      55.273000000000003
   131   1      8.9149999999999991      53.489999999999995      55.273000000000003
   132   1      8.9149999999999991      55.273000000000003      53.489999999999995
   133   1      7.1319999999999979      53.489999999999995      57.056000000000012
   134   1      7.1319999999999979      55.273000000000003      58.839000000000006
   135   1      8.9149999999999991      53.489999999999995      58.839000000000006
   136   1      8.9149999999999991      55.273000000000003      57.056000000000012
   137   1      7.1319999999999979      53.489999999999995                  60.622
   138   1      7.1319999999999979      55.273000000000003      62.405000000000001
   139   1      8.9149999999999991      53.489999999999995      62.405000000000001
   140   1      8.9149999999999991      55.273000000000003                  60.622
   141   1      7.1319999999999979      53.489999999999995      64.188000000000002
   142   1      8.9149999999999991      53.489999999999995      65.971000000000004
   143   1      8.9149999999999991      55.273000000000003      64.188000000000002
   144   1      8.9149999999999991      57.056000000000012      44.575000000000003
   145   1      7.1319999999999979      57.056000000000012      46.358000000000004
   146   1      7.1319999999999979      58.839000000000006      48.140999999999998
   147   1      8.9149999999999991      57.056000000000012      48.140999999999998
   148   1      8.9149999999999991      58.839000000000006      46.358000000000004
   149   1      7.1319999999999979      57.056000000000012      49.923999999999992
   150   1      7.1319999999999979      58.839000000000006      51.707000000000001
   151   1      8.9149999999999991      57.056000000000012      51.707000000000001
   152   1      8.9149999999999991      58.839000000000006      49.923999999999992
   153   1      7.1319999999999979      57.056000000000012      53.489999999999995
   154   1      7.1319999999999979      58.839000000000006      55.273000000000003
   155   1      8.9149999999999991      57.056000000000012      55.273000000000003
   156   1      8.9149999999999991      58.839000000000006      53.489999999999995
   157   1      7.1319999999999979      57.056000000000012      57.056000000000012
   158   1      7.1319999999999979      58.839000000000006      58.839000000000006
   159   1      8.9149999999999991      57.056000000000012      58.839000000000006
   160   1      8.9149999999999991      58.839000000000006      57.056000000000012
   161   1      7.1319999999999979      57.056000000000012                  60.622
   162   1      8.9149999999999991      57.056000000000012      62.405000000000001
   163   1      8.9149999999999991      58.839000000000006                  60.622
   164   1      8.9149999999999991                  60.622      44.575000000000003
   165   1      8.9149999999999991                  60.622      48.140999999999998
   166   1      8.9149999999999991      62.405000000000001      46.358000000000004
   167   1      7.1319999999999979                  60.622      49.923999999999992
   168   1      7.1319999999999979      62.405000000000001      51.707000000000001
   169   1      8.9149999999999991                  60.622      51.707000000000001
   170   1      8.9149999999999991      62.405000000000001      49.923999999999992
   171   1      7.1319999999999979                  60.622      53.489999999999995
   172   1      7.1319999999999979      62.405000000000001      55.273000000000003
   173   1      8.9149999999999991                  60.622      55.273000000000003
   174   1      8.9149999999999991      62.405000000000001      53.489999999999995
   175   1      7.1319999999999979                  60.622      57.056000000000012
   176   1      8.9149999999999991                  60.622      58.839000000000006
   177   1      8.9149999999999991      62.405000000000001      57.056000000000012
   178   1      8.9149999999999991                  60.622      62.405000000000001
   179   1      8.9149999999999991      62.405000000000001                  60.622
   180   1      8.9149999999999991      64.188000000000002      51.707000000000001
   181   1      7.1319999999999979      64.188000000000002      53.489999999999995
   182   1      8.9149999999999991      64.188000000000002      55.273000000000003
   183   1      8.9149999999999991      65.971000000000004      53.489999999999995
   184   1      12.481000000000002      37.443000000000005      49.923999999999992
   185   1      12.481000000000002      37.443000000000005      53.489999999999995
   186   1      12.481000000000002      37.443000000000005      57.056000000000012
   187   1                  10.698                  41.009      48.140999999999998
   188   1      12.481000000000002      39.225999999999999      48.140999999999998
   189   1      12.481000000000002                  41.009      46.358000000000004
   190   1                  10.698                  41.009      51.707000000000001
   191   1      12.481000000000002      39.225999999999999      51.707000000000001
   192   1      12.481000000000002                  41.009      49.923999999999992
   193   1                  10.698      39.225999999999999      53.489999999999995
   194   1                  10.698                  41.009      55.273000000000003
   195   1      12.481000000000002      39.225999999999999      55.273000000000003
   196   1      12.481000000000002                  41.009      53.489999999999995
   197   1                  10.698                  41.009      58.839000000000006
   198   1      12.481000000000002      39.225999999999999      58.839000000000006
   199   1      12.481000000000002                  41.009      57.056000000000012
   200   1      12.481000000000002                  41.009                  60.622
   201   1                  10.698      44.575000000000003      44.575000000000003
   202   1      12.481000000000002      42.792000000000002      44.575000000000003
   203   1      12.481000000000002      44.575000000000003      42.792000000000002
   204   1                  10.698      42.792000000000002      46.358000000000004
   205   1                  10.698      44.575000000000003      48.140999999999998
   206   1      12.481000000000002      42.792000000000002      48.140999999999998
   207   1      12.481000000000002      44.575000000000003      46.358000000000004
   208   1                  10.698      42.792000000000002      49.923999999999992
   209   1                  10.698      44.575000000000003      51.707000000000001
   210   1      12.481000000000002      42.792000000000002      51.707000000000001
   211   1      12.481000000000002      44.575000000000003      49.923999999999992
   212   1                  10.698      42.792000000000002      53.489999999999995
   213   1                  10.698      44.575000000000003      55.273000000000003
   214   1      12.481000000000002      42.792000000000002      55.273000000000003
   215   1      12.481000000000002      44.575000000000003      53.489999999999995
   216   1                  10.698      42.792000000000002      57.056000000000012
   217   1                  10.698      44.575000000000003      58.839000000000006
   218   1      12.481000000000002      42.792000000000002      58.839000000000006
   219   1      12.481000000000002      44.575000000000003      57.056000000000012
   220   1                  10.698      42.792000000000002                  60.622
   221   1                  10.698      44.575000000000003      62.405000000000001
   222   1      12.481000000000002      42.792000000000002      62.405000000000001
   223   1      12.481000000000002      44.575000000000003                  60.622
   224   1      12.481000000000002      44.575000000000003      64.188000000000002
   225   1                  10.698      48.140999999999998                  41.009
   226   1      12.481000000000002      46.358000000000004                  41.009
   227   1      12.481000000000002      48.140999999999998      39.225999999999999
   228   1                  10.698      46.358000000000004      42.792000000000002
   229   1                  10.698      48.140999999999998      44.575000000000003
   230   1      12.481000000000002      46.358000000000004      44.575000000000003
   231   1      12.481000000000002      48.140999999999998      42.792000000000002
   232   1                  10.698      46.358000000000004      46.358000000000004
   233   1                  10.698      48.140999999999998      48.140999999999998
   234   1      12.481000000000002      46.358000000000004      48.140999999999998
   235   1      12.481000000000002      48.140999999999998      46.358000000000004
   236   1                  10.698      46.358000000000004      49.923999999999992
   237   1                  10.698      48.140999999999998      51.707000000000001
   238   1      12.481000000000002      46.358000000000004      51.707000000000001
   239   1      12.481000000000002      48.140999999999998      49.923999999999992
   240   1                  10.698      46.358000000000004      53.489999999999995
   241   1                  10.698      48.140999999999998      55.273000000000003
   242   1      12.481000000000002      46.358000000000004      55.273000000000003
   243   1      12.481000000000002      48.140999999999998      53.489999999999995
   244   1                  10.698      46.358000000000004      57.056000000000012
   245   1                  10.698      48.140999999999998      58.839000000000006
   246   1      12.481000000000002      46.358000000000004      58.839000000000006
   247   1      12.481000000000002      48.140999999999998      57.056000000000012
   248   1                  10.698      46.358000000000004                  60.622
   249   1                  10.698      48.140999999999998      62.405000000000001
   250   1      12.481000000000002      46.358000000000004      62.405000000000001
   251   1      12.481000000000002      48.140999999999998                  60.622
   252   1                  10.698      46.358000000000004      64.188000000000002
   253   1                  10.698      48.140999999999998      65.971000000000004
   254   1      12.481000000000002      46.358000000000004      65.971000000000004
   255   1      12.481000000000002      48.140999999999998      64.188000000000002
   256   1      12.481000000000002      48.140999999999998      67.753999999999991
   257   1      12.481000000000002      49.923999999999992      37.443000000000005
   258   1                  10.698      51.707000000000001                  41.009
   259   1      12.481000000000002      49.923999999999992                  41.009
   260   1      12.481000000000002      51.707000000000001      39.225999999999999
   261   1                  10.698      49.923999999999992      42.792000000000002
   262   1                  10.698      51.707000000000001      44.575000000000003
   263   1      12.481000000000002      49.923999999999992      44.575000000000003
   264   1      12.481000000000002      51.707000000000001      42.792000000000002
   265   1                  10.698      49.923999999999992      46.358000000000004
   266   1                  10.698      51.707000000000001      48.140999999999998
   267   1      12.481000000000002      49.923999999999992      48.140999999999998
   268   1      12.481000000000002      51.707000000000001      46.358000000000004
   269   1                  10.698      49.923999999999992      49.923999999999992
   270   1                  10.698      51.707000000000001      51.707000000000001
   271   1      12.481000000000002      49.923999999999992      51.707000000000001
   272   1      12.481000000000002      51.707000000000001      49.923999999999992
   273   1                  10.698      49.923999999999992      53.489999999999995
   274   1                  10.698      51.707000000000001      55.273000000000003
   275   1      12.481000000000002      49.923999999999992      55.273000000000003
   276   1      12.481000000000002      51.707000000000001      53.489999999999995
   277   1                  10.698      49.923999999999992      57.056000000000012
   278   1                  10.698      51.707000000000001      58.839000000000006
   279   1      12.481000000000002      49.923999999999992      58.839000000000006
   280   1      12.481000000000002      51.707000000000001      57.056000000000012
   281   1                  10.698      49.923999999999992                  60.622
   282   1                  10.698      51.707000000000001      62.405000000000001
   283   1      12.481000000000002      49.923999999999992      62.405000000000001
   284   1      12.481000000000002      51.707000000000001                  60.622
   285   1                  10.698      49.923999999999992      64.188000000000002
   286   1                  10.698      51.707000000000001      65.971000000000004
   287   1      12.481000000000002      49.923999999999992      65.971000000000004
   288   1      12.481000000000002      51.707000000000001      64.188000000000002
   289   1      12.481000000000002      49.923999999999992      69.537000000000006
   290   1      12.481000000000002      51.707000000000001      67.753999999999991
   291   1      12.481000000000002      53.489999999999995      37.443000000000005
   292   1                  10.698      53.489999999999995      39.225999999999999
   293   1                  10.698      55.273000000000003                  41.009
   294   1      12.481000000000002      53.489999999999995                  41.009
   295   1      12.481000000000002      55.273000000000003      39.225999999999999
   296   1                  10.698      53.489999999999995      42.792000000000002
   297   1                  10.698      55.273000000000003      44.575000000000003
   298   1      12.481000000000002      53.489999999999995      44.575000000000003
   299   1      12.481000000000002      55.273000000000003      42.792000000000002
   300   1                  10.698      53.489999999999995      46.358000000000004
   301   1                  10.698      55.273000000000003      48.140999999999998
   302   1      12.481000000000002      53.489999999999995      48.140999999999998
   303   1      12.481000000000002      55.273000000000003      46.358000000000004
   304   1                  10.698      53.489999999999995      49.923999999999992
   305   1                  10.698      55.273000000000003      51.707000000000001
   306   1      12.481000000000002      53.489999999999995      51.707000000000001
   307   1      12.481000000000002      55.273000000000003      49.923999999999992
   308   1                  10.698      53.489999999999995      53.489999999999995
   309   1                  10.698      55.273000000000003      55.273000000000003
   310   1      12.481000000000002      53.489999999999995      55.273000000000003
   311   1      12.481000000000002      55.273000000000003      53.489999999999995
   312   1                  10.698      53.489999999999995      57.056000000000012
   313   1                  10.698      55.273000000000003      58.839000000000006
   314   1      12.481000000000002      53.489999999999995      58.839000000000006
   315   1      12.481000000000002      55.273000000000003      57.056000000000012
   316   1                  10.698      53.489999999999995                  60.622
   317   1                  10.698      55.273000000000003      62.405000000000001
   318   1      12.481000000000002      53.489999999999995      62.405000000000001
   319   1      12.481000000000002      55.273000000000003                  60.622
   320   1                  10.698      53.489999999999995      64.188000000000002
   321   1                  10.698      55.273000000000003      65.971000000000004
   322   1      12.481000000000002      53.489999999999995      65.971000000000004
   323   1      12.481000000000002      55.273000000000003      64.188000000000002
   324   1                  10.698      53.489999999999995      67.753999999999991
   325   1      12.481000000000002      53.489999999999995      69.537000000000006
   326   1      12.481000000000002      55.273000000000003      67.753999999999991
   327   1      12.481000000000002      57.056000000000012      37.443000000000005
   328   1                  10.698      58.839000000000006                  41.009
   329   1      12.481000000000002      57.056000000000012                  41.009
   330   1      12.481000000000002      58.839000000000006      39.225999999999999
   331   1                  10.698      57.056000000000012      42.792000000000002
   332   1                  10.698      58.839000000000006      44.575000000000003
   333   1      12.481000000000002      57.056000000000012      44.575000000000003
   334   1      12.481000000000002      58.839000000000006      42.792000000000002
   335   1                  10.698      57.056000000000012      46.358000000000004
   336   1                  10.698      58.839000000000006      48.140999999999998
   337   1      12.481000000000002      57.056000000000012      48.140999999999998
   338   1      12.481000000000002      58.839000000000006      46.358000000000004
   339   1                  10.698      57.056000000000012      49.923999999999992
   340   1                  10.698      58.839000000000006      51.707000000000001
   341   1      12.481000000000002      57.056000000000012      51.707000000000001
   342   1      12.481000000000002      58.839000000000006      49.923999999999992
   343   1                  10.698      57.056000000000012      53.489999999999995
   344   1                  10.698      58.839000000000006      55.273000000000003
   345   1      12.481000000000002      57.056000000000012      55.273000000000003
   346   1      12.481000000000002      58.839000000000006      53.489999999999995
   347   1                  10.698      57.056000000000012      57.056000000000012
   348   1                  10.698      58.839000000000006      58.839000000000006
   349   1      12.481000000000002      57.056000000000012      58.839000000000006
   350   1      12.481000000000002      58.839000000000006      57.056000000000012
   351   1                  10.698      57.056000000000012                  60.622
   352   1                  10.698      58.839000000000006      62.405000000000001
   353   1      12.481000000000002      57.056000000000012      62.405000000000001
   354   1      12.481000000000002      58.839000000000006                  60.622
   355   1                  10.698      57.056000000000012      64.188000000000002
   356   1                  10.698      58.839000000000006      65.971000000000004
   357   1      12.481000000000002      57.056000000000012      65.971000000000004
   358   1      12.481000000000002      58.839000000000006      64.188000000000002