model_files/Co/Co_30000/Co_532/data.Co_532_hcp_30213 (written by ASE) 

30213 	 atoms 
1  atom types
0.0                      70  xlo xhi
0.0                      70  ylo yhi
0.0                      70  zlo zhi


Atoms 

     1   1      1.2549999999999955      31.374999999999993      35.139999999999993
     2   1      1.2549999999999955      32.629999999999995      33.884999999999998
     3   1      1.2549999999999955      33.884999999999998      32.629999999999995
     4   1      1.2549999999999955      32.629999999999995      36.394999999999996
     5   1      1.2549999999999955      33.884999999999998      35.139999999999993
     6   1      1.2549999999999955      33.884999999999998      37.649999999999991
     7   1      1.2549999999999955      35.139999999999993      31.374999999999993
     8   1      1.2549999999999955      35.139999999999993      33.884999999999998
     9   1      1.2549999999999955      36.394999999999996      32.629999999999995
    10   1      69.999999999999986      35.139999999999993      35.139999999999993
    11   1      1.2549999999999955      35.139999999999993      36.394999999999996
    12   1      1.2549999999999955      36.394999999999996      35.139999999999993
    13   1      1.2549999999999955      35.139999999999993      38.904999999999994
    14   1      1.2549999999999955      36.394999999999996      37.649999999999991
    15   1      1.2549999999999955      37.649999999999991      33.884999999999998
    16   1      1.2549999999999955      37.649999999999991      36.394999999999996
    17   1      1.2549999999999955      38.904999999999994      35.139999999999993
    18   1      3.7649999999999935      28.864999999999988      32.629999999999995
    19   1      3.7649999999999935      28.864999999999988      35.139999999999993
    20   1      3.7649999999999935      28.864999999999988      37.649999999999991
    21   1      3.7649999999999935       30.11999999999999      31.374999999999993
    22   1      3.7649999999999935      31.374999999999993       30.11999999999999
    23   1       2.509999999999998      31.374999999999993      33.884999999999998
    24   1      3.7649999999999935       30.11999999999999      33.884999999999998
    25   1      3.7649999999999935      31.374999999999993      32.629999999999995
    26   1       2.509999999999998       30.11999999999999      35.139999999999993
    27   1       2.509999999999998      31.374999999999993      36.394999999999996
    28   1      3.7649999999999935       30.11999999999999      36.394999999999996
    29   1      3.7649999999999935      31.374999999999993      35.139999999999993
    30   1      3.7649999999999935       30.11999999999999      38.904999999999994
    31   1      3.7649999999999935      31.374999999999993      37.649999999999991
    32   1      3.7649999999999935      31.374999999999993      40.159999999999982
    33   1      3.7649999999999935      32.629999999999995      28.864999999999988
    34   1       2.509999999999998      33.884999999999998      31.374999999999993
    35   1      3.7649999999999935      32.629999999999995      31.374999999999993
    36   1      3.7649999999999935      33.884999999999998       30.11999999999999
    37   1       2.509999999999998      32.629999999999995      32.629999999999995
    38   1       2.509999999999998      33.884999999999998      33.884999999999998
    39   1      3.7649999999999935      32.629999999999995      33.884999999999998
    40   1      3.7649999999999935      33.884999999999998      32.629999999999995
    41   1       2.509999999999998      32.629999999999995      35.139999999999993
    42   1       2.509999999999998      33.884999999999998      36.394999999999996
    43   1      3.7649999999999935      32.629999999999995      36.394999999999996
    44   1      3.7649999999999935      33.884999999999998      35.139999999999993
    45   1       2.509999999999998      32.629999999999995      37.649999999999991
    46   1       2.509999999999998      33.884999999999998      38.904999999999994
    47   1      3.7649999999999935      32.629999999999995      38.904999999999994
    48   1      3.7649999999999935      33.884999999999998      37.649999999999991
    49   1      3.7649999999999935      32.629999999999995      41.414999999999992
    50   1      3.7649999999999935      33.884999999999998      40.159999999999982
    51   1      3.7649999999999935      35.139999999999993      28.864999999999988
    52   1       2.509999999999998      35.139999999999993       30.11999999999999
    53   1       2.509999999999998      36.394999999999996      31.374999999999993
    54   1      3.7649999999999935      35.139999999999993      31.374999999999993
    55   1      3.7649999999999935      36.394999999999996       30.11999999999999
    56   1       2.509999999999998      35.139999999999993      32.629999999999995
    57   1       2.509999999999998      36.394999999999996      33.884999999999998
    58   1      3.7649999999999935      35.139999999999993      33.884999999999998
    59   1      3.7649999999999935      36.394999999999996      32.629999999999995
    60   1       2.509999999999998      35.139999999999993      35.139999999999993
    61   1       2.509999999999998      36.394999999999996      36.394999999999996
    62   1      3.7649999999999935      35.139999999999993      36.394999999999996
    63   1      3.7649999999999935      36.394999999999996      35.139999999999993
    64   1       2.509999999999998      35.139999999999993      37.649999999999991
    65   1       2.509999999999998      36.394999999999996      38.904999999999994
    66   1      3.7649999999999935      35.139999999999993      38.904999999999994
    67   1      3.7649999999999935      36.394999999999996      37.649999999999991
    68   1       2.509999999999998      35.139999999999993      40.159999999999982
    69   1      3.7649999999999935      35.139999999999993      41.414999999999992
    70   1      3.7649999999999935      36.394999999999996      40.159999999999982
    71   1      3.7649999999999935      37.649999999999991      28.864999999999988
    72   1      3.7649999999999935      37.649999999999991      31.374999999999993
    73   1      3.7649999999999935      38.904999999999994       30.11999999999999
    74   1       2.509999999999998      37.649999999999991      32.629999999999995
    75   1       2.509999999999998      38.904999999999994      33.884999999999998
    76   1      3.7649999999999935      37.649999999999991      33.884999999999998
    77   1      3.7649999999999935      38.904999999999994      32.629999999999995
    78   1       2.509999999999998      37.649999999999991      35.139999999999993
    79   1       2.509999999999998      38.904999999999994      36.394999999999996
    80   1      3.7649999999999935      37.649999999999991      36.394999999999996
    81   1      3.7649999999999935      38.904999999999994      35.139999999999993
    82   1       2.509999999999998      37.649999999999991      37.649999999999991
    83   1      3.7649999999999935      37.649999999999991      38.904999999999994
    84   1      3.7649999999999935      38.904999999999994      37.649999999999991
    85   1      3.7649999999999935      37.649999999999991      41.414999999999992
    86   1      3.7649999999999935      38.904999999999994      40.159999999999982
    87   1      3.7649999999999935      40.159999999999982      31.374999999999993
    88   1      3.7649999999999935      40.159999999999982      33.884999999999998
    89   1      3.7649999999999935      41.414999999999992      32.629999999999995
    90   1       2.509999999999998      40.159999999999982      35.139999999999993
    91   1      3.7649999999999935      40.159999999999982      36.394999999999996
    92   1      3.7649999999999935      41.414999999999992      35.139999999999993
    93   1      3.7649999999999935      40.159999999999982      38.904999999999994
    94   1      3.7649999999999935      41.414999999999992      37.649999999999991
    95   1       6.274999999999995      23.844999999999992      35.139999999999993
    96   1       6.274999999999995      26.354999999999993       30.11999999999999
    97   1       5.019999999999996      26.354999999999993      33.884999999999998
    98   1       6.274999999999995      25.099999999999994      33.884999999999998
    99   1       6.274999999999995      26.354999999999993      32.629999999999995
   100   1       5.019999999999996      25.099999999999994      35.139999999999993
   101   1       5.019999999999996      26.354999999999993      36.394999999999996
   102   1       6.274999999999995      25.099999999999994      36.394999999999996
   103   1       6.274999999999995      26.354999999999993      35.139999999999993
   104   1       6.274999999999995      26.354999999999993      37.649999999999991
   105   1       6.274999999999995      26.354999999999993      40.159999999999982
   106   1       6.274999999999995      27.609999999999992      28.864999999999988
   107   1       6.274999999999995      28.864999999999988      27.609999999999992
   108   1       5.019999999999996      28.864999999999988      31.374999999999993
   109   1       6.274999999999995      27.609999999999992      31.374999999999993
   110   1       6.274999999999995      28.864999999999988       30.11999999999999
   111   1       5.019999999999996      27.609999999999992      32.629999999999995
   112   1       5.019999999999996      28.864999999999988      33.884999999999998
   113   1       6.274999999999995      27.609999999999992      33.884999999999998
   114   1       6.274999999999995      28.864999999999988      32.629999999999995
   115   1       5.019999999999996      27.609999999999992      35.139999999999993
   116   1       5.019999999999996      28.864999999999988      36.394999999999996
   117   1       6.274999999999995      27.609999999999992      36.394999999999996
   118   1       6.274999999999995      28.864999999999988      35.139999999999993
   119   1       5.019999999999996      27.609999999999992      37.649999999999991
   120   1       5.019999999999996      28.864999999999988      38.904999999999994
   121   1       6.274999999999995      27.609999999999992      38.904999999999994
   122   1       6.274999999999995      28.864999999999988      37.649999999999991
   123   1       6.274999999999995      27.609999999999992      41.414999999999992
   124   1       6.274999999999995      28.864999999999988      40.159999999999982
   125   1       6.274999999999995      28.864999999999988       42.66999999999998
   126   1       6.274999999999995       30.11999999999999      26.354999999999993
   127   1       5.019999999999996      31.374999999999993      28.864999999999988
   128   1       6.274999999999995       30.11999999999999      28.864999999999988
   129   1       6.274999999999995      31.374999999999993      27.609999999999992
   130   1       5.019999999999996       30.11999999999999       30.11999999999999
   131   1       5.019999999999996      31.374999999999993      31.374999999999993
   132   1       6.274999999999995       30.11999999999999      31.374999999999993
   133   1       6.274999999999995      31.374999999999993       30.11999999999999
   134   1       5.019999999999996       30.11999999999999      32.629999999999995
   135   1       5.019999999999996      31.374999999999993      33.884999999999998
   136   1       6.274999999999995       30.11999999999999      33.884999999999998
   137   1       6.274999999999995      31.374999999999993      32.629999999999995
   138   1       5.019999999999996       30.11999999999999      35.139999999999993
   139   1       5.019999999999996      31.374999999999993      36.394999999999996
   140   1       6.274999999999995       30.11999999999999      36.394999999999996
   141   1       6.274999999999995      31.374999999999993      35.139999999999993
   142   1       5.019999999999996       30.11999999999999      37.649999999999991
   143   1       5.019999999999996      31.374999999999993      38.904999999999994
   144   1       6.274999999999995       30.11999999999999      38.904999999999994
   145   1       6.274999999999995      31.374999999999993      37.649999999999991
   146   1       5.019999999999996       30.11999999999999      40.159999999999982
   147   1       5.019999999999996      31.374999999999993      41.414999999999992
   148   1       6.274999999999995       30.11999999999999      41.414999999999992
   149   1       6.274999999999995      31.374999999999993      40.159999999999982
   150   1       6.274999999999995       30.11999999999999       43.92499999999999
   151   1       6.274999999999995      31.374999999999993       42.66999999999998
   152   1       5.019999999999996      33.884999999999998      26.354999999999993
   153   1       6.274999999999995      32.629999999999995      26.354999999999993
   154   1       6.274999999999995      33.884999999999998      25.099999999999994
   155   1       5.019999999999996      32.629999999999995      27.609999999999992
   156   1       5.019999999999996      33.884999999999998      28.864999999999988
   157   1       6.274999999999995      32.629999999999995      28.864999999999988
   158   1       6.274999999999995      33.884999999999998      27.609999999999992
   159   1       5.019999999999996      32.629999999999995       30.11999999999999
   160   1       5.019999999999996      33.884999999999998      31.374999999999993
   161   1       6.274999999999995      32.629999999999995      31.374999999999993
   162   1       6.274999999999995      33.884999999999998       30.11999999999999
   163   1       5.019999999999996      32.629999999999995      32.629999999999995
   164   1       5.019999999999996      33.884999999999998      33.884999999999998
   165   1       6.274999999999995      32.629999999999995      33.884999999999998
   166   1       6.274999999999995      33.884999999999998      32.629999999999995
   167   1       5.019999999999996      32.629999999999995      35.139999999999993
   168   1       5.019999999999996      33.884999999999998      36.394999999999996
   169   1       6.274999999999995      32.629999999999995      36.394999999999996
   170   1       6.274999999999995      33.884999999999998      35.139999999999993
   171   1       5.019999999999996      32.629999999999995      37.649999999999991
   172   1       5.019999999999996      33.884999999999998      38.904999999999994
   173   1       6.274999999999995      32.629999999999995      38.904999999999994
   174   1       6.274999999999995      33.884999999999998      37.649999999999991
   175   1       5.019999999999996      32.629999999999995      40.159999999999982
   176   1       5.019999999999996      33.884999999999998      41.414999999999992
   177   1       6.274999999999995      32.629999999999995      41.414999999999992
   178   1       6.274999999999995      33.884999999999998      40.159999999999982
   179   1       5.019999999999996      32.629999999999995       42.66999999999998
   180   1       5.019999999999996      33.884999999999998       43.92499999999999
   181   1       6.274999999999995      32.629999999999995       43.92499999999999
   182   1       6.274999999999995      33.884999999999998       42.66999999999998
   183   1       6.274999999999995      33.884999999999998      45.179999999999993
   184   1       6.274999999999995      35.139999999999993      23.844999999999992
   185   1       5.019999999999996      35.139999999999993      25.099999999999994
   186   1       5.019999999999996      36.394999999999996      26.354999999999993
   187   1       6.274999999999995      35.139999999999993      26.354999999999993
   188   1       6.274999999999995      36.394999999999996      25.099999999999994
   189   1       5.019999999999996      35.139999999999993      27.609999999999992
   190   1       5.019999999999996      36.394999999999996      28.864999999999988
   191   1       6.274999999999995      35.139999999999993      28.864999999999988
   192   1       6.274999999999995      36.394999999999996      27.609999999999992
   193   1       5.019999999999996      35.139999999999993       30.11999999999999
   194   1       5.019999999999996      36.394999999999996      31.374999999999993
   195   1       6.274999999999995      35.139999999999993      31.374999999999993
   196   1       6.274999999999995      36.394999999999996       30.11999999999999
   197   1       5.019999999999996      35.139999999999993      32.629999999999995
   198   1       5.019999999999996      36.394999999999996      33.884999999999998
   199   1       6.274999999999995      35.139999999999993      33.884999999999998
   200   1       6.274999999999995      36.394999999999996      32.629999999999995
   201   1       5.019999999999996      35.139999999999993      35.139999999999993
   202   1       5.019999999999996      36.394999999999996      36.394999999999996
   203   1       6.274999999999995      35.139999999999993      36.394999999999996
   204   1       6.274999999999995      36.394999999999996      35.139999999999993
   205   1       5.019999999999996      35.139999999999993      37.649999999999991
   206   1       5.019999999999996      36.394999999999996      38.904999999999994
   207   1       6.274999999999995      35.139999999999993      38.904999999999994
   208   1       6.274999999999995      36.394999999999996      37.649999999999991
   209   1       5.019999999999996      35.139999999999993      40.159999999999982
   210   1       5.019999999999996      36.394999999999996      41.414999999999992
   211   1       6.274999999999995      35.139999999999993      41.414999999999992
   212   1       6.274999999999995      36.394999999999996      40.159999999999982
   213   1       5.019999999999996      35.139999999999993       42.66999999999998
   214   1       5.019999999999996      36.394999999999996       43.92499999999999
   215   1       6.274999999999995      35.139999999999993       43.92499999999999
   216   1       6.274999999999995      36.394999999999996       42.66999999999998
   217   1       5.019999999999996      35.139999999999993      45.179999999999993
   218   1       6.274999999999995      35.139999999999993      46.434999999999995
   219   1       6.274999999999995      36.394999999999996      45.179999999999993
   220   1       6.274999999999995      37.649999999999991      26.354999999999993
   221   1       5.019999999999996      37.649999999999991      27.609999999999992
   222   1       5.019999999999996      38.904999999999994      28.864999999999988
   223   1       6.274999999999995      37.649999999999991      28.864999999999988
   224   1       6.274999999999995      38.904999999999994      27.609999999999992
   225   1       5.019999999999996      37.649999999999991       30.11999999999999
   226   1       5.019999999999996      38.904999999999994      31.374999999999993
   227   1       6.274999999999995      37.649999999999991      31.374999999999993
   228   1       6.274999999999995      38.904999999999994       30.11999999999999
   229   1       5.019999999999996      37.649999999999991      32.629999999999995
   230   1       5.019999999999996      38.904999999999994      33.884999999999998
   231   1       6.274999999999995      37.649999999999991      33.884999999999998
   232   1       6.274999999999995      38.904999999999994      32.629999999999995
   233   1       5.019999999999996      37.649999999999991      35.139999999999993
   234   1       5.019999999999996      38.904999999999994      36.394999999999996
   235   1       6.274999999999995      37.649999999999991      36.394999999999996
   236   1       6.274999999999995      38.904999999999994      35.139999999999993
   237   1       5.019999999999996      37.649999999999991      37.649999999999991
   238   1       5.019999999999996      38.904999999999994      38.904999999999994
   239   1       6.274999999999995      37.649999999999991      38.904999999999994
   240   1       6.274999999999995      38.904999999999994      37.649999999999991
   241   1       5.019999999999996      37.649999999999991      40.159999999999982
   242   1       5.019999999999996      38.904999999999994      41.414999999999992
   243   1       6.274999999999995      37.649999999999991      41.414999999999992
   244   1       6.274999999999995      38.904999999999994      40.159999999999982
   245   1       5.019999999999996      37.649999999999991       42.66999999999998
   246   1       6.274999999999995      37.649999999999991       43.92499999999999
   247   1       6.274999999999995      38.904999999999994       42.66999999999998
   248   1       6.274999999999995      40.159999999999982      26.354999999999993
   249   1       6.274999999999995      40.159999999999982      28.864999999999988
   250   1       6.274999999999995      41.414999999999992      27.609999999999992
   251   1       5.019999999999996      40.159999999999982       30.11999999999999
   252   1       5.019999999999996      41.414999999999992      31.374999999999993
   253   1       6.274999999999995      40.159999999999982      31.374999999999993
   254   1       6.274999999999995      41.414999999999992       30.11999999999999
   255   1       5.019999999999996      40.159999999999982      32.629999999999995
   256   1       5.019999999999996      41.414999999999992      33.884999999999998
   257   1       6.274999999999995      40.159999999999982      33.884999999999998
   258   1       6.274999999999995      41.414999999999992      32.629999999999995
   259   1       5.019999999999996      40.159999999999982      35.139999999999993
   260   1       5.019999999999996      41.414999999999992      36.394999999999996
   261   1       6.274999999999995      40.159999999999982      36.394999999999996
   262   1       6.274999999999995      41.414999999999992      35.139999999999993
   263   1       5.019999999999996      40.159999999999982      37.649999999999991
   264   1       5.019999999999996      41.414999999999992      38.904999999999994
   265   1       6.274999999999995      40.159999999999982      38.904999999999994
   266   1       6.274999999999995      41.414999999999992      37.649999999999991
   267   1       5.019999999999996      40.159999999999982      40.159999999999982
   268   1       6.274999999999995      40.159999999999982      41.414999999999992
   269   1       6.274999999999995      41.414999999999992      40.159999999999982
   270   1       6.274999999999995      40.159999999999982       43.92499999999999
   271   1       6.274999999999995      41.414999999999992       42.66999999999998
   272   1       6.274999999999995       42.66999999999998      28.864999999999988
   273   1       6.274999999999995       42.66999999999998      31.374999999999993
   274   1       6.274999999999995       43.92499999999999       30.11999999999999
   275   1       5.019999999999996       42.66999999999998      32.629999999999995
   276   1       5.019999999999996       43.92499999999999      33.884999999999998
   277   1       6.274999999999995       42.66999999999998      33.884999999999998
   278   1       6.274999999999995       43.92499999999999      32.629999999999995
   279   1       5.019999999999996       42.66999999999998      35.139999999999993
   280   1       5.019999999999996       43.92499999999999      36.394999999999996
   281   1       6.274999999999995       42.66999999999998      36.394999999999996
   282   1       6.274999999999995       43.92499999999999      35.139999999999993
   283   1       5.019999999999996       42.66999999999998      37.649999999999991
   284   1       6.274999999999995       42.66999999999998      38.904999999999994
   285   1       6.274999999999995       43.92499999999999      37.649999999999991
   286   1       6.274999999999995       42.66999999999998      41.414999999999992
   287   1       6.274999999999995       43.92499999999999      40.159999999999982
   288   1       6.274999999999995      45.179999999999993      33.884999999999998
   289   1       5.019999999999996      45.179999999999993      35.139999999999993
   290   1       6.274999999999995      45.179999999999993      36.394999999999996
   291   1       6.274999999999995      46.434999999999995      35.139999999999993
   292   1       8.784999999999993      18.824999999999992      35.139999999999993
   293   1       8.784999999999993      20.079999999999988      33.884999999999998
   294   1       8.784999999999993       21.33499999999999      32.629999999999995
   295   1       8.784999999999993      20.079999999999988      36.394999999999996
   296   1       8.784999999999993       21.33499999999999      35.139999999999993
   297   1       8.784999999999993       21.33499999999999      37.649999999999991
   298   1       8.784999999999993      23.844999999999992      27.609999999999992
   299   1       7.529999999999994      23.844999999999992      31.374999999999993
   300   1       8.784999999999993      22.589999999999993      31.374999999999993
   301   1       8.784999999999993      23.844999999999992       30.11999999999999
   302   1       7.529999999999994      22.589999999999993      32.629999999999995
   303   1       7.529999999999994      23.844999999999992      33.884999999999998
   304   1       8.784999999999993      22.589999999999993      33.884999999999998
   305   1       8.784999999999993      23.844999999999992      32.629999999999995
   306   1       7.529999999999994      22.589999999999993      35.139999999999993
   307   1       7.529999999999994      23.844999999999992      36.394999999999996
   308   1       8.784999999999993      22.589999999999993      36.394999999999996
   309   1       8.784999999999993      23.844999999999992      35.139999999999993
   310   1       7.529999999999994      22.589999999999993      37.649999999999991
   311   1       7.529999999999994      23.844999999999992      38.904999999999994
   312   1       8.784999999999993      22.589999999999993      38.904999999999994
   313   1       8.784999999999993      23.844999999999992      37.649999999999991
   314   1       8.784999999999993      23.844999999999992      40.159999999999982
   315   1       8.784999999999993      23.844999999999992       42.66999999999998
   316   1       8.784999999999993      25.099999999999994      26.354999999999993
   317   1       8.784999999999993      26.354999999999993      25.099999999999994
   318   1       7.529999999999994      26.354999999999993      28.864999999999988
   319   1       8.784999999999993      25.099999999999994      28.864999999999988
   320   1       8.784999999999993      26.354999999999993      27.609999999999992
   321   1       7.529999999999994      25.099999999999994       30.11999999999999
   322   1       7.529999999999994      26.354999999999993      31.374999999999993
   323   1       8.784999999999993      25.099999999999994      31.374999999999993
   324   1       8.784999999999993      26.354999999999993       30.11999999999999
   325   1       7.529999999999994      25.099999999999994      32.629999999999995
   326   1       7.529999999999994      26.354999999999993      33.884999999999998
   327   1       8.784999999999993      25.099999999999994      33.884999999999998
   328   1       8.784999999999993      26.354999999999993      32.629999999999995
   329   1       7.529999999999994      25.099999999999994      35.139999999999993
   330   1       7.529999999999994      26.354999999999993      36.394999999999996
   331   1       8.784999999999993      25.099999999999994      36.394999999999996
   332   1       8.784999999999993      26.354999999999993      35.139999999999993
   333   1       7.529999999999994      25.099999999999994      37.649999999999991
   334   1       7.529999999999994      26.354999999999993      38.904999999999994
   335   1       8.784999999999993      25.099999999999994      38.904999999999994
   336   1       8.784999999999993      26.354999999999993      37.649999999999991
   337   1       7.529999999999994      25.099999999999994      40.159999999999982
   338   1       7.529999999999994      26.354999999999993      41.414999999999992
   339   1       8.784999999999993      25.099999999999994      41.414999999999992
   340   1       8.784999999999993      26.354999999999993      40.159999999999982
   341   1       8.784999999999993      25.099999999999994       43.92499999999999
   342   1       8.784999999999993      26.354999999999993       42.66999999999998
   343   1       8.784999999999993      26.354999999999993      45.179999999999993
   344   1       8.784999999999993      27.609999999999992      23.844999999999992
   345   1       7.529999999999994      28.864999999999988      26.354999999999993
   346   1       8.784999999999993      27.609999999999992      26.354999999999993
   347   1       8.784999999999993      28.864999999999988      25.099999999999994
   348   1       7.529999999999994      27.609999999999992      27.609999999999992
   349   1       7.529999999999994      28.864999999999988      28.864999999999988
   350   1       8.784999999999993      27.609999999999992      28.864999999999988
   351   1       8.784999999999993      28.864999999999988      27.609999999999992
   352   1       7.529999999999994      27.609999999999992       30.11999999999999
   353   1       7.529999999999994      28.864999999999988      31.374999999999993
   354   1       8.784999999999993      27.609999999999992      31.374999999999993
   355   1       8.784999999999993      28.864999999999988       30.11999999999999
   356   1       7.529999999999994      27.609999999999992      32.629999999999995
   357   1       7.529999999999994      28.864999999999988      33.884999999999998
   358   1       8.784999999999993      27.609999999999992      33.884999999999998