model_files/PtFe/PtFe_30000/PtFe_100/PtFe_100_fcc_29659_temp.data (written by ASE) 

29659 	 atoms 
2  atom types
0.0                      73  xlo xhi
0.0                      73  ylo yhi
0.0                      73  zlo zhi


Atoms 

     1   1  7.1054273576010019e-15  7.1054273576010019e-15      1.8800000000000026
     2   1  7.1054273576010019e-15  7.1054273576010019e-15      5.6400000000000041
     3   1  7.1054273576010019e-15  7.1054273576010019e-15      9.4000000000000057
     4   1  7.1054273576010019e-15  7.1054273576010019e-15      13.160000000000004
     5   1  7.1054273576010019e-15  7.1054273576010019e-15      16.919999999999998
     6   1  7.1054273576010019e-15  7.1054273576010019e-15      20.680000000000003
     7   1  7.1054273576010019e-15  7.1054273576010019e-15      24.440000000000001
     8   1  7.1054273576010019e-15  7.1054273576010019e-15      28.200000000000003
     9   1  7.1054273576010019e-15  7.1054273576010019e-15      31.959999999999997
    10   1  7.1054273576010019e-15  7.1054273576010019e-15      35.719999999999999
    11   1  7.1054273576010019e-15  7.1054273576010019e-15      39.480000000000004
    12   1  7.1054273576010019e-15  7.1054273576010019e-15      43.239999999999995
    13   1  7.1054273576010019e-15  7.1054273576010019e-15      46.999999999999993
    14   1  7.1054273576010019e-15  7.1054273576010019e-15      50.760000000000005
    15   1  7.1054273576010019e-15  7.1054273576010019e-15      54.520000000000003
    16   1  7.1054273576010019e-15  7.1054273576010019e-15      58.279999999999994
    17   1  7.1054273576010019e-15  7.1054273576010019e-15      62.039999999999992
    18   1  7.1054273576010019e-15  7.1054273576010019e-15      65.799999999999997
    19   1  7.1054273576010019e-15  7.1054273576010019e-15      69.560000000000002
    20   1  7.1054273576010019e-15      1.8800000000000026  7.1054273576010019e-15
    21   1  7.1054273576010019e-15      1.8800000000000026      3.7600000000000051
    22   1  7.1054273576010019e-15      3.7600000000000051      1.8800000000000026
    23   1  7.1054273576010019e-15      1.8800000000000026      7.5200000000000031
    24   1  7.1054273576010019e-15      3.7600000000000051      5.6400000000000041
    25   1  7.1054273576010019e-15      1.8800000000000026      11.280000000000005
    26   1  7.1054273576010019e-15      3.7600000000000051      9.4000000000000057
    27   1  7.1054273576010019e-15      1.8800000000000026      15.040000000000003
    28   1  7.1054273576010019e-15      3.7600000000000051      13.160000000000004
    29   1  7.1054273576010019e-15      1.8800000000000026      18.800000000000001
    30   1  7.1054273576010019e-15      3.7600000000000051      16.919999999999998
    31   1  7.1054273576010019e-15      1.8800000000000026      22.559999999999999
    32   1  7.1054273576010019e-15      3.7600000000000051      20.680000000000003
    33   1  7.1054273576010019e-15      1.8800000000000026      26.320000000000004
    34   1  7.1054273576010019e-15      3.7600000000000051      24.440000000000001
    35   1  7.1054273576010019e-15      1.8800000000000026      30.079999999999998
    36   1  7.1054273576010019e-15      3.7600000000000051      28.200000000000003
    37   1  7.1054273576010019e-15      1.8800000000000026      33.839999999999996
    38   1  7.1054273576010019e-15      3.7600000000000051      31.959999999999997
    39   1  7.1054273576010019e-15      1.8800000000000026      37.600000000000001
    40   1  7.1054273576010019e-15      3.7600000000000051      35.719999999999999
    41   1  7.1054273576010019e-15      1.8800000000000026      41.360000000000007
    42   1  7.1054273576010019e-15      3.7600000000000051      39.480000000000004
    43   1  7.1054273576010019e-15      1.8800000000000026      45.119999999999997
    44   1  7.1054273576010019e-15      3.7600000000000051      43.239999999999995
    45   1  7.1054273576010019e-15      1.8800000000000026      48.880000000000003
    46   1  7.1054273576010019e-15      3.7600000000000051      46.999999999999993
    47   1  7.1054273576010019e-15      1.8800000000000026      52.640000000000008
    48   1  7.1054273576010019e-15      3.7600000000000051      50.760000000000005
    49   1  7.1054273576010019e-15      1.8800000000000026      56.400000000000006
    50   1  7.1054273576010019e-15      3.7600000000000051      54.520000000000003
    51   1  7.1054273576010019e-15      1.8800000000000026      60.159999999999997
    52   1  7.1054273576010019e-15      3.7600000000000051      58.279999999999994
    53   1  7.1054273576010019e-15      1.8800000000000026      63.919999999999995
    54   1  7.1054273576010019e-15      3.7600000000000051      62.039999999999992
    55   1  7.1054273576010019e-15      1.8800000000000026      67.679999999999993
    56   1  7.1054273576010019e-15      3.7600000000000051      65.799999999999997
    57   1  7.1054273576010019e-15      1.8800000000000026      71.439999999999998
    58   1  7.1054273576010019e-15      3.7600000000000051      69.560000000000002
    59   1  7.1054273576010019e-15      5.6400000000000041  7.1054273576010019e-15
    60   1  7.1054273576010019e-15      5.6400000000000041      3.7600000000000051
    61   1  7.1054273576010019e-15      7.5200000000000031      1.8800000000000026
    62   1  7.1054273576010019e-15      5.6400000000000041      7.5200000000000031
    63   1  7.1054273576010019e-15      7.5200000000000031      5.6400000000000041
    64   1  7.1054273576010019e-15      5.6400000000000041      11.280000000000005
    65   1  7.1054273576010019e-15      7.5200000000000031      9.4000000000000057
    66   1  7.1054273576010019e-15      5.6400000000000041      15.040000000000003
    67   1  7.1054273576010019e-15      7.5200000000000031      13.160000000000004
    68   1  7.1054273576010019e-15      5.6400000000000041      18.800000000000001
    69   1  7.1054273576010019e-15      7.5200000000000031      16.919999999999998
    70   1  7.1054273576010019e-15      5.6400000000000041      22.559999999999999
    71   1  7.1054273576010019e-15      7.5200000000000031      20.680000000000003
    72   1  7.1054273576010019e-15      5.6400000000000041      26.320000000000004
    73   1  7.1054273576010019e-15      7.5200000000000031      24.440000000000001
    74   1  7.1054273576010019e-15      5.6400000000000041      30.079999999999998
    75   1  7.1054273576010019e-15      7.5200000000000031      28.200000000000003
    76   1  7.1054273576010019e-15      5.6400000000000041      33.839999999999996
    77   1  7.1054273576010019e-15      7.5200000000000031      31.959999999999997
    78   1  7.1054273576010019e-15      5.6400000000000041      37.600000000000001
    79   1  7.1054273576010019e-15      7.5200000000000031      35.719999999999999
    80   1  7.1054273576010019e-15      5.6400000000000041      41.360000000000007
    81   1  7.1054273576010019e-15      7.5200000000000031      39.480000000000004
    82   1  7.1054273576010019e-15      5.6400000000000041      45.119999999999997
    83   1  7.1054273576010019e-15      7.5200000000000031      43.239999999999995
    84   1  7.1054273576010019e-15      5.6400000000000041      48.880000000000003
    85   1  7.1054273576010019e-15      7.5200000000000031      46.999999999999993
    86   1  7.1054273576010019e-15      5.6400000000000041      52.640000000000008
    87   1  7.1054273576010019e-15      7.5200000000000031      50.760000000000005
    88   1  7.1054273576010019e-15      5.6400000000000041      56.400000000000006
    89   1  7.1054273576010019e-15      7.5200000000000031      54.520000000000003
    90   1  7.1054273576010019e-15      5.6400000000000041      60.159999999999997
    91   1  7.1054273576010019e-15      7.5200000000000031      58.279999999999994
    92   1  7.1054273576010019e-15      5.6400000000000041      63.919999999999995
    93   1  7.1054273576010019e-15      7.5200000000000031      62.039999999999992
    94   1  7.1054273576010019e-15      5.6400000000000041      67.679999999999993
    95   1  7.1054273576010019e-15      7.5200000000000031      65.799999999999997
    96   1  7.1054273576010019e-15      5.6400000000000041      71.439999999999998
    97   1  7.1054273576010019e-15      7.5200000000000031      69.560000000000002
    98   1  7.1054273576010019e-15      9.4000000000000057  7.1054273576010019e-15
    99   1  7.1054273576010019e-15      9.4000000000000057      3.7600000000000051
   100   1  7.1054273576010019e-15      11.280000000000005      1.8800000000000026
   101   1  7.1054273576010019e-15      9.4000000000000057      7.5200000000000031
   102   1  7.1054273576010019e-15      11.280000000000005      5.6400000000000041
   103   1  7.1054273576010019e-15      9.4000000000000057      11.280000000000005
   104   1  7.1054273576010019e-15      11.280000000000005      9.4000000000000057
   105   1  7.1054273576010019e-15      9.4000000000000057      15.040000000000003
   106   1  7.1054273576010019e-15      11.280000000000005      13.160000000000004
   107   1  7.1054273576010019e-15      9.4000000000000057      18.800000000000001
   108   1  7.1054273576010019e-15      11.280000000000005      16.919999999999998
   109   1  7.1054273576010019e-15      9.4000000000000057      22.559999999999999
   110   1  7.1054273576010019e-15      11.280000000000005      20.680000000000003
   111   1  7.1054273576010019e-15      9.4000000000000057      26.320000000000004
   112   1  7.1054273576010019e-15      11.280000000000005      24.440000000000001
   113   1  7.1054273576010019e-15      9.4000000000000057      30.079999999999998
   114   1  7.1054273576010019e-15      11.280000000000005      28.200000000000003
   115   1  7.1054273576010019e-15      9.4000000000000057      33.839999999999996
   116   1  7.1054273576010019e-15      11.280000000000005      31.959999999999997
   117   1  7.1054273576010019e-15      9.4000000000000057      37.600000000000001
   118   1  7.1054273576010019e-15      11.280000000000005      35.719999999999999
   119   1  7.1054273576010019e-15      9.4000000000000057      41.360000000000007
   120   1  7.1054273576010019e-15      11.280000000000005      39.480000000000004
   121   1  7.1054273576010019e-15      9.4000000000000057      45.119999999999997
   122   1  7.1054273576010019e-15      11.280000000000005      43.239999999999995
   123   1  7.1054273576010019e-15      9.4000000000000057      48.880000000000003
   124   1  7.1054273576010019e-15      11.280000000000005      46.999999999999993
   125   1  7.1054273576010019e-15      9.4000000000000057      52.640000000000008
   126   1  7.1054273576010019e-15      11.280000000000005      50.760000000000005
   127   1  7.1054273576010019e-15      9.4000000000000057      56.400000000000006
   128   1  7.1054273576010019e-15      11.280000000000005      54.520000000000003
   129   1  7.1054273576010019e-15      9.4000000000000057      60.159999999999997
   130   1  7.1054273576010019e-15      11.280000000000005      58.279999999999994
   131   1  7.1054273576010019e-15      9.4000000000000057      63.919999999999995
   132   1  7.1054273576010019e-15      11.280000000000005      62.039999999999992
   133   1  7.1054273576010019e-15      9.4000000000000057      67.679999999999993
   134   1  7.1054273576010019e-15      11.280000000000005      65.799999999999997
   135   1  7.1054273576010019e-15      9.4000000000000057      71.439999999999998
   136   1  7.1054273576010019e-15      11.280000000000005      69.560000000000002
   137   1  7.1054273576010019e-15      13.160000000000004  7.1054273576010019e-15
   138   1  7.1054273576010019e-15      13.160000000000004      3.7600000000000051
   139   1  7.1054273576010019e-15      15.040000000000003      1.8800000000000026
   140   1  7.1054273576010019e-15      13.160000000000004      7.5200000000000031
   141   1  7.1054273576010019e-15      15.040000000000003      5.6400000000000041
   142   1  7.1054273576010019e-15      13.160000000000004      11.280000000000005
   143   1  7.1054273576010019e-15      15.040000000000003      9.4000000000000057
   144   1  7.1054273576010019e-15      13.160000000000004      15.040000000000003
   145   1  7.1054273576010019e-15      15.040000000000003      13.160000000000004
   146   1  7.1054273576010019e-15      13.160000000000004      18.800000000000001
   147   1  7.1054273576010019e-15      15.040000000000003      16.919999999999998
   148   1  7.1054273576010019e-15      13.160000000000004      22.559999999999999
   149   1  7.1054273576010019e-15      15.040000000000003      20.680000000000003
   150   1  7.1054273576010019e-15      13.160000000000004      26.320000000000004
   151   1  7.1054273576010019e-15      15.040000000000003      24.440000000000001
   152   1  7.1054273576010019e-15      13.160000000000004      30.079999999999998
   153   1  7.1054273576010019e-15      15.040000000000003      28.200000000000003
   154   1  7.1054273576010019e-15      13.160000000000004      33.839999999999996
   155   1  7.1054273576010019e-15      15.040000000000003      31.959999999999997
   156   1  7.1054273576010019e-15      13.160000000000004      37.600000000000001
   157   1  7.1054273576010019e-15      15.040000000000003      35.719999999999999
   158   1  7.1054273576010019e-15      13.160000000000004      41.360000000000007
   159   1  7.1054273576010019e-15      15.040000000000003      39.480000000000004
   160   1  7.1054273576010019e-15      13.160000000000004      45.119999999999997
   161   1  7.1054273576010019e-15      15.040000000000003      43.239999999999995
   162   1  7.1054273576010019e-15      13.160000000000004      48.880000000000003
   163   1  7.1054273576010019e-15      15.040000000000003      46.999999999999993
   164   1  7.1054273576010019e-15      13.160000000000004      52.640000000000008
   165   1  7.1054273576010019e-15      15.040000000000003      50.760000000000005
   166   1  7.1054273576010019e-15      13.160000000000004      56.400000000000006
   167   1  7.1054273576010019e-15      15.040000000000003      54.520000000000003
   168   1  7.1054273576010019e-15      13.160000000000004      60.159999999999997
   169   1  7.1054273576010019e-15      15.040000000000003      58.279999999999994
   170   1  7.1054273576010019e-15      13.160000000000004      63.919999999999995
   171   1  7.1054273576010019e-15      15.040000000000003      62.039999999999992
   172   1  7.1054273576010019e-15      13.160000000000004      67.679999999999993
   173   1  7.1054273576010019e-15      15.040000000000003      65.799999999999997
   174   1  7.1054273576010019e-15      13.160000000000004      71.439999999999998
   175   1  7.1054273576010019e-15      15.040000000000003      69.560000000000002
   176   1  7.1054273576010019e-15      16.919999999999998  7.1054273576010019e-15
   177   1  7.1054273576010019e-15      16.919999999999998      3.7600000000000051
   178   1  7.1054273576010019e-15      18.800000000000001      1.8800000000000026
   179   1  7.1054273576010019e-15      16.919999999999998      7.5200000000000031
   180   1  7.1054273576010019e-15      18.800000000000001      5.6400000000000041
   181   1  7.1054273576010019e-15      16.919999999999998      11.280000000000005
   182   1  7.1054273576010019e-15      18.800000000000001      9.4000000000000057
   183   1  7.1054273576010019e-15      16.919999999999998      15.040000000000003
   184   1  7.1054273576010019e-15      18.800000000000001      13.160000000000004
   185   1  7.1054273576010019e-15      16.919999999999998      18.800000000000001
   186   1  7.1054273576010019e-15      18.800000000000001      16.919999999999998
   187   1  7.1054273576010019e-15      16.919999999999998      22.559999999999999
   188   1  7.1054273576010019e-15      18.800000000000001      20.680000000000003
   189   1  7.1054273576010019e-15      16.919999999999998      26.320000000000004
   190   1  7.1054273576010019e-15      18.800000000000001      24.440000000000001
   191   1  7.1054273576010019e-15      16.919999999999998      30.079999999999998
   192   1  7.1054273576010019e-15      18.800000000000001      28.200000000000003
   193   1  7.1054273576010019e-15      16.919999999999998      33.839999999999996
   194   1  7.1054273576010019e-15      18.800000000000001      31.959999999999997
   195   1  7.1054273576010019e-15      16.919999999999998      37.600000000000001
   196   1  7.1054273576010019e-15      18.800000000000001      35.719999999999999
   197   1  7.1054273576010019e-15      16.919999999999998      41.360000000000007
   198   1  7.1054273576010019e-15      18.800000000000001      39.480000000000004
   199   1  7.1054273576010019e-15      16.919999999999998      45.119999999999997
   200   1  7.1054273576010019e-15      18.800000000000001      43.239999999999995
   201   1  7.1054273576010019e-15      16.919999999999998      48.880000000000003
   202   1  7.1054273576010019e-15      18.800000000000001      46.999999999999993
   203   1  7.1054273576010019e-15      16.919999999999998      52.640000000000008
   204   1  7.1054273576010019e-15      18.800000000000001      50.760000000000005
   205   1  7.1054273576010019e-15      16.919999999999998      56.400000000000006
   206   1  7.1054273576010019e-15      18.800000000000001      54.520000000000003
   207   1  7.1054273576010019e-15      16.919999999999998      60.159999999999997
   208   1  7.1054273576010019e-15      18.800000000000001      58.279999999999994
   209   1  7.1054273576010019e-15      16.919999999999998      63.919999999999995
   210   1  7.1054273576010019e-15      18.800000000000001      62.039999999999992
   211   1  7.1054273576010019e-15      16.919999999999998      67.679999999999993
   212   1  7.1054273576010019e-15      18.800000000000001      65.799999999999997
   213   1  7.1054273576010019e-15      16.919999999999998      71.439999999999998
   214   1  7.1054273576010019e-15      18.800000000000001      69.560000000000002
   215   1  7.1054273576010019e-15      20.680000000000003  7.1054273576010019e-15
   216   1  7.1054273576010019e-15      20.680000000000003      3.7600000000000051
   217   1  7.1054273576010019e-15      22.559999999999999      1.8800000000000026
   218   1  7.1054273576010019e-15      20.680000000000003      7.5200000000000031
   219   1  7.1054273576010019e-15      22.559999999999999      5.6400000000000041
   220   1  7.1054273576010019e-15      20.680000000000003      11.280000000000005
   221   1  7.1054273576010019e-15      22.559999999999999      9.4000000000000057
   222   1  7.1054273576010019e-15      20.680000000000003      15.040000000000003
   223   1  7.1054273576010019e-15      22.559999999999999      13.160000000000004
   224   1  7.1054273576010019e-15      20.680000000000003      18.800000000000001
   225   1  7.1054273576010019e-15      22.559999999999999      16.919999999999998
   226   1  7.1054273576010019e-15      20.680000000000003      22.559999999999999
   227   1  7.1054273576010019e-15      22.559999999999999      20.680000000000003
   228   1  7.1054273576010019e-15      20.680000000000003      26.320000000000004
   229   1  7.1054273576010019e-15      22.559999999999999      24.440000000000001
   230   1  7.1054273576010019e-15      20.680000000000003      30.079999999999998
   231   1  7.1054273576010019e-15      22.559999999999999      28.200000000000003
   232   1  7.1054273576010019e-15      20.680000000000003      33.839999999999996
   233   1  7.1054273576010019e-15      22.559999999999999      31.959999999999997
   234   1  7.1054273576010019e-15      20.680000000000003      37.600000000000001
   235   1  7.1054273576010019e-15      22.559999999999999      35.719999999999999
   236   1  7.1054273576010019e-15      20.680000000000003      41.360000000000007
   237   1  7.1054273576010019e-15      22.559999999999999      39.480000000000004
   238   1  7.1054273576010019e-15      20.680000000000003      45.119999999999997
   239   1  7.1054273576010019e-15      22.559999999999999      43.239999999999995
   240   1  7.1054273576010019e-15      20.680000000000003      48.880000000000003
   241   1  7.1054273576010019e-15      22.559999999999999      46.999999999999993
   242   1  7.1054273576010019e-15      20.680000000000003      52.640000000000008
   243   1  7.1054273576010019e-15      22.559999999999999      50.760000000000005
   244   1  7.1054273576010019e-15      20.680000000000003      56.400000000000006
   245   1  7.1054273576010019e-15      22.559999999999999      54.520000000000003
   246   1  7.1054273576010019e-15      20.680000000000003      60.159999999999997
   247   1  7.1054273576010019e-15      22.559999999999999      58.279999999999994
   248   1  7.1054273576010019e-15      20.680000000000003      63.919999999999995
   249   1  7.1054273576010019e-15      22.559999999999999      62.039999999999992
   250   1  7.1054273576010019e-15      20.680000000000003      67.679999999999993
   251   1  7.1054273576010019e-15      22.559999999999999      65.799999999999997
   252   1  7.1054273576010019e-15      20.680000000000003      71.439999999999998
   253   1  7.1054273576010019e-15      22.559999999999999      69.560000000000002
   254   1  7.1054273576010019e-15      24.440000000000001  7.1054273576010019e-15
   255   1  7.1054273576010019e-15      24.440000000000001      3.7600000000000051
   256   1  7.1054273576010019e-15      26.320000000000004      1.8800000000000026
   257   1  7.1054273576010019e-15      24.440000000000001      7.5200000000000031
   258   1  7.1054273576010019e-15      26.320000000000004      5.6400000000000041
   259   1  7.1054273576010019e-15      24.440000000000001      11.280000000000005
   260   1  7.1054273576010019e-15      26.320000000000004      9.4000000000000057
   261   1  7.1054273576010019e-15      24.440000000000001      15.040000000000003
   262   1  7.1054273576010019e-15      26.320000000000004      13.160000000000004
   263   1  7.1054273576010019e-15      24.440000000000001      18.800000000000001
   264   1  7.1054273576010019e-15      26.320000000000004      16.919999999999998
   265   1  7.1054273576010019e-15      24.440000000000001      22.559999999999999
   266   1  7.1054273576010019e-15      26.320000000000004      20.680000000000003
   267   1  7.1054273576010019e-15      24.440000000000001      26.320000000000004
   268   1  7.1054273576010019e-15      26.320000000000004      24.440000000000001
   269   1  7.1054273576010019e-15      24.440000000000001      30.079999999999998
   270   1  7.1054273576010019e-15      26.320000000000004      28.200000000000003
   271   1  7.1054273576010019e-15      24.440000000000001      33.839999999999996
   272   1  7.1054273576010019e-15      26.320000000000004      31.959999999999997
   273   1  7.1054273576010019e-15      24.440000000000001      37.600000000000001
   274   1  7.1054273576010019e-15      26.320000000000004      35.719999999999999
   275   1  7.1054273576010019e-15      24.440000000000001      41.360000000000007
   276   1  7.1054273576010019e-15      26.320000000000004      39.480000000000004
   277   1  7.1054273576010019e-15      24.440000000000001      45.119999999999997
   278   1  7.1054273576010019e-15      26.320000000000004      43.239999999999995
   279   1  7.1054273576010019e-15      24.440000000000001      48.880000000000003
   280   1  7.1054273576010019e-15      26.320000000000004      46.999999999999993
   281   1  7.1054273576010019e-15      24.440000000000001      52.640000000000008
   282   1  7.1054273576010019e-15      26.320000000000004      50.760000000000005
   283   1  7.1054273576010019e-15      24.440000000000001      56.400000000000006
   284   1  7.1054273576010019e-15      26.320000000000004      54.520000000000003
   285   1  7.1054273576010019e-15      24.440000000000001      60.159999999999997
   286   1  7.1054273576010019e-15      26.320000000000004      58.279999999999994
   287   1  7.1054273576010019e-15      24.440000000000001      63.919999999999995
   288   1  7.1054273576010019e-15      26.320000000000004      62.039999999999992
   289   1  7.1054273576010019e-15      24.440000000000001      67.679999999999993
   290   1  7.1054273576010019e-15      26.320000000000004      65.799999999999997
   291   1  7.1054273576010019e-15      24.440000000000001      71.439999999999998
   292   1  7.1054273576010019e-15      26.320000000000004      69.560000000000002
   293   1  7.1054273576010019e-15      28.200000000000003  7.1054273576010019e-15
   294   1  7.1054273576010019e-15      28.200000000000003      3.7600000000000051
   295   1  7.1054273576010019e-15      30.079999999999998      1.8800000000000026
   296   1  7.1054273576010019e-15      28.200000000000003      7.5200000000000031
   297   1  7.1054273576010019e-15      30.079999999999998      5.6400000000000041
   298   1  7.1054273576010019e-15      28.200000000000003      11.280000000000005
   299   1  7.1054273576010019e-15      30.079999999999998      9.4000000000000057
   300   1  7.1054273576010019e-15      28.200000000000003      15.040000000000003
   301   1  7.1054273576010019e-15      30.079999999999998      13.160000000000004
   302   1  7.1054273576010019e-15      28.200000000000003      18.800000000000001
   303   1  7.1054273576010019e-15      30.079999999999998      16.919999999999998
   304   1  7.1054273576010019e-15      28.200000000000003      22.559999999999999
   305   1  7.1054273576010019e-15      30.079999999999998      20.680000000000003
   306   1  7.1054273576010019e-15      28.200000000000003      26.320000000000004
   307   1  7.1054273576010019e-15      30.079999999999998      24.440000000000001
   308   1  7.1054273576010019e-15      28.200000000000003      30.079999999999998
   309   1  7.1054273576010019e-15      30.079999999999998      28.200000000000003
   310   1  7.1054273576010019e-15      28.200000000000003      33.839999999999996
   311   1  7.1054273576010019e-15      30.079999999999998      31.959999999999997
   312   1  7.1054273576010019e-15      28.200000000000003      37.600000000000001
   313   1  7.1054273576010019e-15      30.079999999999998      35.719999999999999
   314   1  7.1054273576010019e-15      28.200000000000003      41.360000000000007
   315   1  7.1054273576010019e-15      30.079999999999998      39.480000000000004
   316   1  7.1054273576010019e-15      28.200000000000003      45.119999999999997
   317   1  7.1054273576010019e-15      30.079999999999998      43.239999999999995
   318   1  7.1054273576010019e-15      28.200000000000003      48.880000000000003
   319   1  7.1054273576010019e-15      30.079999999999998      46.999999999999993
   320   1  7.1054273576010019e-15      28.200000000000003      52.640000000000008
   321   1  7.1054273576010019e-15      30.079999999999998      50.760000000000005
   322   1  7.1054273576010019e-15      28.200000000000003      56.400000000000006
   323   1  7.1054273576010019e-15      30.079999999999998      54.520000000000003
   324   1  7.1054273576010019e-15      28.200000000000003      60.159999999999997
   325   1  7.1054273576010019e-15      30.079999999999998      58.279999999999994
   326   1  7.1054273576010019e-15      28.200000000000003      63.919999999999995
   327   1  7.1054273576010019e-15      30.079999999999998      62.039999999999992
   328   1  7.1054273576010019e-15      28.200000000000003      67.679999999999993
   329   1  7.1054273576010019e-15      30.079999999999998      65.799999999999997
   330   1  7.1054273576010019e-15      28.200000000000003      71.439999999999998
   331   1  7.1054273576010019e-15      30.079999999999998      69.560000000000002
   332   1  7.1054273576010019e-15      31.959999999999997  7.1054273576010019e-15
   333   1  7.1054273576010019e-15      31.959999999999997      3.7600000000000051
   334   1  7.1054273576010019e-15      33.839999999999996      1.8800000000000026
   335   1  7.1054273576010019e-15      31.959999999999997      7.5200000000000031
   336   1  7.1054273576010019e-15      33.839999999999996      5.6400000000000041
   337   1  7.1054273576010019e-15      31.959999999999997      11.280000000000005
   338   1  7.1054273576010019e-15      33.839999999999996      9.4000000000000057
   339   1  7.1054273576010019e-15      31.959999999999997      15.040000000000003
   340   1  7.1054273576010019e-15      33.839999999999996      13.160000000000004
   341   1  7.1054273576010019e-15      31.959999999999997      18.800000000000001
   342   1  7.1054273576010019e-15      33.839999999999996      16.919999999999998
   343   1  7.1054273576010019e-15      31.959999999999997      22.559999999999999
   344   1  7.1054273576010019e-15      33.839999999999996      20.680000000000003
   345   1  7.1054273576010019e-15      31.959999999999997      26.320000000000004
   346   1  7.1054273576010019e-15      33.839999999999996      24.440000000000001
   347   1  7.1054273576010019e-15      31.959999999999997      30.079999999999998
   348   1  7.1054273576010019e-15      33.839999999999996      28.200000000000003
   349   1  7.1054273576010019e-15      31.959999999999997      33.839999999999996
   350   1  7.1054273576010019e-15      33.839999999999996      31.959999999999997
   351   1  7.1054273576010019e-15      31.959999999999997      37.600000000000001
   352   1  7.1054273576010019e-15      33.839999999999996      35.719999999999999
   353   1  7.1054273576010019e-15      31.959999999999997      41.360000000000007
   354   1  7.1054273576010019e-15      33.839999999999996      39.480000000000004
   355   1  7.1054273576010019e-15      31.959999999999997      45.119999999999997
   356   1  7.1054273576010019e-15      33.839999999999996      43.239999999999995
   357   1  7.1054273576010019e-15      31.959999999999997      48.880000000000003
   358   1  7.1054273576010019e-15      33.839999999999996      46.999999999999993