model_files/Pd/Pd_30000/Pd_321/data.Pd_321_fcc_29817 (written by ASE) 

29817 	 atoms 
1  atom types
0.0                     108  xlo xhi
0.0                     108  ylo yhi
0.0                     108  zlo zhi


Atoms 

     1   1      1.9450000000000001                  48.625      54.459999999999994
     2   1                       0      52.514999999999993      52.514999999999993
     3   1      1.9450000000000001                   50.57      52.514999999999993
     4   1      1.9450000000000001      52.514999999999993                   50.57
     5   1                       0      52.514999999999993      56.405000000000001
     6   1      1.9450000000000001                   50.57      56.405000000000001
     7   1      1.9450000000000001      52.514999999999993      54.459999999999994
     8   1      1.9450000000000001      52.514999999999993      58.349999999999994
     9   1      1.9450000000000001      54.459999999999994                  48.625
    10   1                       0      56.405000000000001      52.514999999999993
    11   1      1.9450000000000001      54.459999999999994      52.514999999999993
    12   1      1.9450000000000001      56.405000000000001                   50.57
    13   1                       0      54.459999999999994      54.459999999999994
    14   1                       0      56.405000000000001      56.405000000000001
    15   1      1.9450000000000001      54.459999999999994      56.405000000000001
    16   1      1.9450000000000001      56.405000000000001      54.459999999999994
    17   1      1.9450000000000001      54.459999999999994      60.294999999999995
    18   1      1.9450000000000001      56.405000000000001      58.349999999999994
    19   1      1.9450000000000001      58.349999999999994      52.514999999999993
    20   1      1.9450000000000001      58.349999999999994      56.405000000000001
    21   1      1.9450000000000001      60.294999999999995      54.459999999999994
    22   1      5.8350000000000009      44.734999999999999                   50.57
    23   1      5.8350000000000009      44.734999999999999      54.459999999999994
    24   1      5.8350000000000009      44.734999999999999      58.349999999999994
    25   1      3.8900000000000001                  48.625                  48.625
    26   1      5.8350000000000009      46.679999999999993                  48.625
    27   1      5.8350000000000009                  48.625      46.679999999999993
    28   1      3.8900000000000001                  48.625      52.514999999999993
    29   1      5.8350000000000009      46.679999999999993      52.514999999999993
    30   1      5.8350000000000009                  48.625                   50.57
    31   1      3.8900000000000001      46.679999999999993      54.459999999999994
    32   1      3.8900000000000001                  48.625      56.405000000000001
    33   1      5.8350000000000009      46.679999999999993      56.405000000000001
    34   1      5.8350000000000009                  48.625      54.459999999999994
    35   1      3.8900000000000001                  48.625      60.294999999999995
    36   1      5.8350000000000009      46.679999999999993      60.294999999999995
    37   1      5.8350000000000009                  48.625      58.349999999999994
    38   1      5.8350000000000009                  48.625      62.239999999999988
    39   1      5.8350000000000009                   50.57      44.734999999999999
    40   1      3.8900000000000001      52.514999999999993                  48.625
    41   1      5.8350000000000009                   50.57                  48.625
    42   1      5.8350000000000009      52.514999999999993      46.679999999999993
    43   1      3.8900000000000001                   50.57                   50.57
    44   1      3.8900000000000001      52.514999999999993      52.514999999999993
    45   1      5.8350000000000009                   50.57      52.514999999999993
    46   1      5.8350000000000009      52.514999999999993                   50.57
    47   1      3.8900000000000001                   50.57      54.459999999999994
    48   1      3.8900000000000001      52.514999999999993      56.405000000000001
    49   1      5.8350000000000009                   50.57      56.405000000000001
    50   1      5.8350000000000009      52.514999999999993      54.459999999999994
    51   1      3.8900000000000001                   50.57      58.349999999999994
    52   1      3.8900000000000001      52.514999999999993      60.294999999999995
    53   1      5.8350000000000009                   50.57      60.294999999999995
    54   1      5.8350000000000009      52.514999999999993      58.349999999999994
    55   1      5.8350000000000009                   50.57      64.184999999999988
    56   1      5.8350000000000009      52.514999999999993      62.239999999999988
    57   1      5.8350000000000009      54.459999999999994      44.734999999999999
    58   1      3.8900000000000001      54.459999999999994      46.679999999999993
    59   1      3.8900000000000001      56.405000000000001                  48.625
    60   1      5.8350000000000009      54.459999999999994                  48.625
    61   1      5.8350000000000009      56.405000000000001      46.679999999999993
    62   1      3.8900000000000001      54.459999999999994                   50.57
    63   1      3.8900000000000001      56.405000000000001      52.514999999999993
    64   1      5.8350000000000009      54.459999999999994      52.514999999999993
    65   1      5.8350000000000009      56.405000000000001                   50.57
    66   1      3.8900000000000001      54.459999999999994      54.459999999999994
    67   1      3.8900000000000001      56.405000000000001      56.405000000000001
    68   1      5.8350000000000009      54.459999999999994      56.405000000000001
    69   1      5.8350000000000009      56.405000000000001      54.459999999999994
    70   1      3.8900000000000001      54.459999999999994      58.349999999999994
    71   1      3.8900000000000001      56.405000000000001      60.294999999999995
    72   1      5.8350000000000009      54.459999999999994      60.294999999999995
    73   1      5.8350000000000009      56.405000000000001      58.349999999999994
    74   1      3.8900000000000001      54.459999999999994      62.239999999999988
    75   1      5.8350000000000009      54.459999999999994      64.184999999999988
    76   1      5.8350000000000009      56.405000000000001      62.239999999999988
    77   1      5.8350000000000009      58.349999999999994      44.734999999999999
    78   1      3.8900000000000001      60.294999999999995                  48.625
    79   1      5.8350000000000009      58.349999999999994                  48.625
    80   1      5.8350000000000009      60.294999999999995      46.679999999999993
    81   1      3.8900000000000001      58.349999999999994                   50.57
    82   1      3.8900000000000001      60.294999999999995      52.514999999999993
    83   1      5.8350000000000009      58.349999999999994      52.514999999999993
    84   1      5.8350000000000009      60.294999999999995                   50.57
    85   1      3.8900000000000001      58.349999999999994      54.459999999999994
    86   1      3.8900000000000001      60.294999999999995      56.405000000000001
    87   1      5.8350000000000009      58.349999999999994      56.405000000000001
    88   1      5.8350000000000009      60.294999999999995      54.459999999999994
    89   1      3.8900000000000001      58.349999999999994      58.349999999999994
    90   1      3.8900000000000001      60.294999999999995      60.294999999999995
    91   1      5.8350000000000009      58.349999999999994      60.294999999999995
    92   1      5.8350000000000009      60.294999999999995      58.349999999999994
    93   1      5.8350000000000009      58.349999999999994      64.184999999999988
    94   1      5.8350000000000009      60.294999999999995      62.239999999999988
    95   1      5.8350000000000009      62.239999999999988                  48.625
    96   1      5.8350000000000009      62.239999999999988      52.514999999999993
    97   1      5.8350000000000009      64.184999999999988                   50.57
    98   1      3.8900000000000001      62.239999999999988      54.459999999999994
    99   1      5.8350000000000009      62.239999999999988      56.405000000000001
   100   1      5.8350000000000009      64.184999999999988      54.459999999999994
   101   1      5.8350000000000009      62.239999999999988      60.294999999999995
   102   1      5.8350000000000009      64.184999999999988      58.349999999999994
   103   1      9.7250000000000014      36.954999999999998      54.459999999999994
   104   1      9.7250000000000014      40.844999999999992      46.679999999999993
   105   1      7.7800000000000002      40.844999999999992      52.514999999999993
   106   1      9.7250000000000014      38.899999999999999      52.514999999999993
   107   1      9.7250000000000014      40.844999999999992                   50.57
   108   1      7.7800000000000002      40.844999999999992      56.405000000000001
   109   1      9.7250000000000014      38.899999999999999      56.405000000000001
   110   1      9.7250000000000014      40.844999999999992      54.459999999999994
   111   1      9.7250000000000014      40.844999999999992      58.349999999999994
   112   1      9.7250000000000014      40.844999999999992      62.239999999999988
   113   1      7.7800000000000002      44.734999999999999      44.734999999999999
   114   1      9.7250000000000014      42.789999999999999      44.734999999999999
   115   1      9.7250000000000014      44.734999999999999      42.789999999999999
   116   1      7.7800000000000002      44.734999999999999                  48.625
   117   1      9.7250000000000014      42.789999999999999                  48.625
   118   1      9.7250000000000014      44.734999999999999      46.679999999999993
   119   1      7.7800000000000002      42.789999999999999                   50.57
   120   1      7.7800000000000002      44.734999999999999      52.514999999999993
   121   1      9.7250000000000014      42.789999999999999      52.514999999999993
   122   1      9.7250000000000014      44.734999999999999                   50.57
   123   1      7.7800000000000002      42.789999999999999      54.459999999999994
   124   1      7.7800000000000002      44.734999999999999      56.405000000000001
   125   1      9.7250000000000014      42.789999999999999      56.405000000000001
   126   1      9.7250000000000014      44.734999999999999      54.459999999999994
   127   1      7.7800000000000002      42.789999999999999      58.349999999999994
   128   1      7.7800000000000002      44.734999999999999      60.294999999999995
   129   1      9.7250000000000014      42.789999999999999      60.294999999999995
   130   1      9.7250000000000014      44.734999999999999      58.349999999999994
   131   1      7.7800000000000002      44.734999999999999      64.184999999999988
   132   1      9.7250000000000014      42.789999999999999      64.184999999999988
   133   1      9.7250000000000014      44.734999999999999      62.239999999999988
   134   1      9.7250000000000014      44.734999999999999      66.129999999999995
   135   1      9.7250000000000014      46.679999999999993      40.844999999999992
   136   1      7.7800000000000002                  48.625      44.734999999999999
   137   1      9.7250000000000014      46.679999999999993      44.734999999999999
   138   1      9.7250000000000014                  48.625      42.789999999999999
   139   1      7.7800000000000002      46.679999999999993      46.679999999999993
   140   1      7.7800000000000002                  48.625                  48.625
   141   1      9.7250000000000014      46.679999999999993                  48.625
   142   1      9.7250000000000014                  48.625      46.679999999999993
   143   1      7.7800000000000002      46.679999999999993                   50.57
   144   1      7.7800000000000002                  48.625      52.514999999999993
   145   1      9.7250000000000014      46.679999999999993      52.514999999999993
   146   1      9.7250000000000014                  48.625                   50.57
   147   1      7.7800000000000002      46.679999999999993      54.459999999999994
   148   1      7.7800000000000002                  48.625      56.405000000000001
   149   1      9.7250000000000014      46.679999999999993      56.405000000000001
   150   1      9.7250000000000014                  48.625      54.459999999999994
   151   1      7.7800000000000002      46.679999999999993      58.349999999999994
   152   1      7.7800000000000002                  48.625      60.294999999999995
   153   1      9.7250000000000014      46.679999999999993      60.294999999999995
   154   1      9.7250000000000014                  48.625      58.349999999999994
   155   1      7.7800000000000002      46.679999999999993      62.239999999999988
   156   1      7.7800000000000002                  48.625      64.184999999999988
   157   1      9.7250000000000014      46.679999999999993      64.184999999999988
   158   1      9.7250000000000014                  48.625      62.239999999999988
   159   1      9.7250000000000014      46.679999999999993      68.074999999999989
   160   1      9.7250000000000014                  48.625      66.129999999999995
   161   1      7.7800000000000002      52.514999999999993      40.844999999999992
   162   1      9.7250000000000014                   50.57      40.844999999999992
   163   1      9.7250000000000014      52.514999999999993      38.899999999999999
   164   1      7.7800000000000002                   50.57      42.789999999999999
   165   1      7.7800000000000002      52.514999999999993      44.734999999999999
   166   1      9.7250000000000014                   50.57      44.734999999999999
   167   1      9.7250000000000014      52.514999999999993      42.789999999999999
   168   1      7.7800000000000002                   50.57      46.679999999999993
   169   1      7.7800000000000002      52.514999999999993                  48.625
   170   1      9.7250000000000014                   50.57                  48.625
   171   1      9.7250000000000014      52.514999999999993      46.679999999999993
   172   1      7.7800000000000002                   50.57                   50.57
   173   1      7.7800000000000002      52.514999999999993      52.514999999999993
   174   1      9.7250000000000014                   50.57      52.514999999999993
   175   1      9.7250000000000014      52.514999999999993                   50.57
   176   1      7.7800000000000002                   50.57      54.459999999999994
   177   1      7.7800000000000002      52.514999999999993      56.405000000000001
   178   1      9.7250000000000014                   50.57      56.405000000000001
   179   1      9.7250000000000014      52.514999999999993      54.459999999999994
   180   1      7.7800000000000002                   50.57      58.349999999999994
   181   1      7.7800000000000002      52.514999999999993      60.294999999999995
   182   1      9.7250000000000014                   50.57      60.294999999999995
   183   1      9.7250000000000014      52.514999999999993      58.349999999999994
   184   1      7.7800000000000002                   50.57      62.239999999999988
   185   1      7.7800000000000002      52.514999999999993      64.184999999999988
   186   1      9.7250000000000014                   50.57      64.184999999999988
   187   1      9.7250000000000014      52.514999999999993      62.239999999999988
   188   1      7.7800000000000002                   50.57      66.129999999999995
   189   1      7.7800000000000002      52.514999999999993      68.074999999999989
   190   1      9.7250000000000014                   50.57      68.074999999999989
   191   1      9.7250000000000014      52.514999999999993      66.129999999999995
   192   1      9.7250000000000014      52.514999999999993      70.019999999999982
   193   1      9.7250000000000014      54.459999999999994      36.954999999999998
   194   1      7.7800000000000002      56.405000000000001      40.844999999999992
   195   1      9.7250000000000014      54.459999999999994      40.844999999999992
   196   1      9.7250000000000014      56.405000000000001      38.899999999999999
   197   1      7.7800000000000002      54.459999999999994      42.789999999999999
   198   1      7.7800000000000002      56.405000000000001      44.734999999999999
   199   1      9.7250000000000014      54.459999999999994      44.734999999999999
   200   1      9.7250000000000014      56.405000000000001      42.789999999999999
   201   1      7.7800000000000002      54.459999999999994      46.679999999999993
   202   1      7.7800000000000002      56.405000000000001                  48.625
   203   1      9.7250000000000014      54.459999999999994                  48.625
   204   1      9.7250000000000014      56.405000000000001      46.679999999999993
   205   1      7.7800000000000002      54.459999999999994                   50.57
   206   1      7.7800000000000002      56.405000000000001      52.514999999999993
   207   1      9.7250000000000014      54.459999999999994      52.514999999999993
   208   1      9.7250000000000014      56.405000000000001                   50.57
   209   1      7.7800000000000002      54.459999999999994      54.459999999999994
   210   1      7.7800000000000002      56.405000000000001      56.405000000000001
   211   1      9.7250000000000014      54.459999999999994      56.405000000000001
   212   1      9.7250000000000014      56.405000000000001      54.459999999999994
   213   1      7.7800000000000002      54.459999999999994      58.349999999999994
   214   1      7.7800000000000002      56.405000000000001      60.294999999999995
   215   1      9.7250000000000014      54.459999999999994      60.294999999999995
   216   1      9.7250000000000014      56.405000000000001      58.349999999999994
   217   1      7.7800000000000002      54.459999999999994      62.239999999999988
   218   1      7.7800000000000002      56.405000000000001      64.184999999999988
   219   1      9.7250000000000014      54.459999999999994      64.184999999999988
   220   1      9.7250000000000014      56.405000000000001      62.239999999999988
   221   1      7.7800000000000002      54.459999999999994      66.129999999999995
   222   1      7.7800000000000002      56.405000000000001      68.074999999999989
   223   1      9.7250000000000014      54.459999999999994      68.074999999999989
   224   1      9.7250000000000014      56.405000000000001      66.129999999999995
   225   1      9.7250000000000014      54.459999999999994      71.964999999999989
   226   1      9.7250000000000014      56.405000000000001      70.019999999999982
   227   1      9.7250000000000014      58.349999999999994      40.844999999999992
   228   1      7.7800000000000002      58.349999999999994      42.789999999999999
   229   1      7.7800000000000002      60.294999999999995      44.734999999999999
   230   1      9.7250000000000014      58.349999999999994      44.734999999999999
   231   1      9.7250000000000014      60.294999999999995      42.789999999999999
   232   1      7.7800000000000002      58.349999999999994      46.679999999999993
   233   1      7.7800000000000002      60.294999999999995                  48.625
   234   1      9.7250000000000014      58.349999999999994                  48.625
   235   1      9.7250000000000014      60.294999999999995      46.679999999999993
   236   1      7.7800000000000002      58.349999999999994                   50.57
   237   1      7.7800000000000002      60.294999999999995      52.514999999999993
   238   1      9.7250000000000014      58.349999999999994      52.514999999999993
   239   1      9.7250000000000014      60.294999999999995                   50.57
   240   1      7.7800000000000002      58.349999999999994      54.459999999999994
   241   1      7.7800000000000002      60.294999999999995      56.405000000000001
   242   1      9.7250000000000014      58.349999999999994      56.405000000000001
   243   1      9.7250000000000014      60.294999999999995      54.459999999999994
   244   1      7.7800000000000002      58.349999999999994      58.349999999999994
   245   1      7.7800000000000002      60.294999999999995      60.294999999999995
   246   1      9.7250000000000014      58.349999999999994      60.294999999999995
   247   1      9.7250000000000014      60.294999999999995      58.349999999999994
   248   1      7.7800000000000002      58.349999999999994      62.239999999999988
   249   1      7.7800000000000002      60.294999999999995      64.184999999999988
   250   1      9.7250000000000014      58.349999999999994      64.184999999999988
   251   1      9.7250000000000014      60.294999999999995      62.239999999999988
   252   1      7.7800000000000002      58.349999999999994      66.129999999999995
   253   1      9.7250000000000014      58.349999999999994      68.074999999999989
   254   1      9.7250000000000014      60.294999999999995      66.129999999999995
   255   1      9.7250000000000014      62.239999999999988      40.844999999999992
   256   1      7.7800000000000002      64.184999999999988      44.734999999999999
   257   1      9.7250000000000014      62.239999999999988      44.734999999999999
   258   1      9.7250000000000014      64.184999999999988      42.789999999999999
   259   1      7.7800000000000002      62.239999999999988      46.679999999999993
   260   1      7.7800000000000002      64.184999999999988                  48.625
   261   1      9.7250000000000014      62.239999999999988                  48.625
   262   1      9.7250000000000014      64.184999999999988      46.679999999999993
   263   1      7.7800000000000002      62.239999999999988                   50.57
   264   1      7.7800000000000002      64.184999999999988      52.514999999999993
   265   1      9.7250000000000014      62.239999999999988      52.514999999999993
   266   1      9.7250000000000014      64.184999999999988                   50.57
   267   1      7.7800000000000002      62.239999999999988      54.459999999999994
   268   1      7.7800000000000002      64.184999999999988      56.405000000000001
   269   1      9.7250000000000014      62.239999999999988      56.405000000000001
   270   1      9.7250000000000014      64.184999999999988      54.459999999999994
   271   1      7.7800000000000002      62.239999999999988      58.349999999999994
   272   1      7.7800000000000002      64.184999999999988      60.294999999999995
   273   1      9.7250000000000014      62.239999999999988      60.294999999999995
   274   1      9.7250000000000014      64.184999999999988      58.349999999999994
   275   1      7.7800000000000002      62.239999999999988      62.239999999999988
   276   1      7.7800000000000002      64.184999999999988      64.184999999999988
   277   1      9.7250000000000014      62.239999999999988      64.184999999999988
   278   1      9.7250000000000014      64.184999999999988      62.239999999999988
   279   1      9.7250000000000014      62.239999999999988      68.074999999999989
   280   1      9.7250000000000014      64.184999999999988      66.129999999999995
   281   1      9.7250000000000014      66.129999999999995      44.734999999999999
   282   1      9.7250000000000014      66.129999999999995                  48.625
   283   1      9.7250000000000014      68.074999999999989      46.679999999999993
   284   1      7.7800000000000002      66.129999999999995                   50.57
   285   1      7.7800000000000002      68.074999999999989      52.514999999999993
   286   1      9.7250000000000014      66.129999999999995      52.514999999999993
   287   1      9.7250000000000014      68.074999999999989                   50.57
   288   1      7.7800000000000002      66.129999999999995      54.459999999999994
   289   1      7.7800000000000002      68.074999999999989      56.405000000000001
   290   1      9.7250000000000014      66.129999999999995      56.405000000000001
   291   1      9.7250000000000014      68.074999999999989      54.459999999999994
   292   1      7.7800000000000002      66.129999999999995      58.349999999999994
   293   1      9.7250000000000014      66.129999999999995      60.294999999999995
   294   1      9.7250000000000014      68.074999999999989      58.349999999999994
   295   1      9.7250000000000014      66.129999999999995      64.184999999999988
   296   1      9.7250000000000014      68.074999999999989      62.239999999999988
   297   1      9.7250000000000014      70.019999999999982      52.514999999999993
   298   1      9.7250000000000014      70.019999999999982      56.405000000000001
   299   1      9.7250000000000014      71.964999999999989      54.459999999999994
   300   1                  13.615      33.064999999999998                   50.57
   301   1                  13.615      33.064999999999998      54.459999999999994
   302   1                  13.615      33.064999999999998      58.349999999999994
   303   1                  13.615      36.954999999999998      42.789999999999999
   304   1      11.670000000000002      36.954999999999998                  48.625
   305   1                  13.615      35.009999999999991                  48.625
   306   1                  13.615      36.954999999999998      46.679999999999993
   307   1      11.670000000000002      36.954999999999998      52.514999999999993
   308   1                  13.615      35.009999999999991      52.514999999999993
   309   1                  13.615      36.954999999999998                   50.57
   310   1      11.670000000000002      35.009999999999991      54.459999999999994
   311   1      11.670000000000002      36.954999999999998      56.405000000000001
   312   1                  13.615      35.009999999999991      56.405000000000001
   313   1                  13.615      36.954999999999998      54.459999999999994
   314   1      11.670000000000002      36.954999999999998      60.294999999999995
   315   1                  13.615      35.009999999999991      60.294999999999995
   316   1                  13.615      36.954999999999998      58.349999999999994
   317   1                  13.615      36.954999999999998      62.239999999999988
   318   1                  13.615      36.954999999999998      66.129999999999995
   319   1      11.670000000000002      40.844999999999992      40.844999999999992
   320   1                  13.615      38.899999999999999      40.844999999999992
   321   1                  13.615      40.844999999999992      38.899999999999999
   322   1      11.670000000000002      40.844999999999992      44.734999999999999
   323   1                  13.615      38.899999999999999      44.734999999999999
   324   1                  13.615      40.844999999999992      42.789999999999999
   325   1      11.670000000000002      38.899999999999999      46.679999999999993
   326   1      11.670000000000002      40.844999999999992                  48.625
   327   1                  13.615      38.899999999999999                  48.625
   328   1                  13.615      40.844999999999992      46.679999999999993
   329   1      11.670000000000002      38.899999999999999                   50.57
   330   1      11.670000000000002      40.844999999999992      52.514999999999993
   331   1                  13.615      38.899999999999999      52.514999999999993
   332   1                  13.615      40.844999999999992                   50.57
   333   1      11.670000000000002      38.899999999999999      54.459999999999994
   334   1      11.670000000000002      40.844999999999992      56.405000000000001
   335   1                  13.615      38.899999999999999      56.405000000000001
   336   1                  13.615      40.844999999999992      54.459999999999994
   337   1      11.670000000000002      38.899999999999999      58.349999999999994
   338   1      11.670000000000002      40.844999999999992      60.294999999999995
   339   1                  13.615      38.899999999999999      60.294999999999995
   340   1                  13.615      40.844999999999992      58.349999999999994
   341   1      11.670000000000002      38.899999999999999      62.239999999999988
   342   1      11.670000000000002      40.844999999999992      64.184999999999988
   343   1                  13.615      38.899999999999999      64.184999999999988
   344   1                  13.615      40.844999999999992      62.239999999999988
   345   1      11.670000000000002      40.844999999999992      68.074999999999989
   346   1                  13.615      38.899999999999999      68.074999999999989
   347   1                  13.615      40.844999999999992      66.129999999999995
   348   1                  13.615      40.844999999999992      70.019999999999982
   349   1                  13.615      42.789999999999999      36.954999999999998
   350   1      11.670000000000002      44.734999999999999      40.844999999999992
   351   1                  13.615      42.789999999999999      40.844999999999992
   352   1                  13.615      44.734999999999999      38.899999999999999
   353   1      11.670000000000002      42.789999999999999      42.789999999999999
   354   1      11.670000000000002      44.734999999999999      44.734999999999999
   355   1                  13.615      42.789999999999999      44.734999999999999
   356   1                  13.615      44.734999999999999      42.789999999999999
   357   1      11.670000000000002      42.789999999999999      46.679999999999993
   358   1      11.670000000000002      44.734999999999999                  48.625