model_files/CuNi/CuNi_30000/CuNi_542/CuNi_542_fcc_29823_temp.data (written by ASE) 

29823 	 atoms 
2  atom types
0.0                     106  xlo xhi
0.0                     106  ylo yhi
0.0                     106  zlo zhi


Atoms 

     1   1      1.7829999999999939      51.707000000000001      53.489999999999995
     2   1      1.7829999999999939      53.489999999999995      51.707000000000001
     3   1                       0      53.489999999999995      53.489999999999995
     4   1      1.7829999999999939      53.489999999999995      55.273000000000003
     5   1      1.7829999999999939      55.273000000000003      53.489999999999995
     6   1      3.5659999999999954      48.140999999999998      51.707000000000001
     7   1      5.3489999999999966      46.358000000000004      51.707000000000001
     8   1      5.3489999999999966      48.140999999999998      49.923999999999992
     9   1      3.5659999999999954      48.140999999999998      55.273000000000003
    10   1      5.3489999999999966      46.358000000000004      55.273000000000003
    11   1      5.3489999999999966      48.140999999999998      53.489999999999995
    12   1      5.3489999999999966      48.140999999999998      57.056000000000012
    13   1      3.5659999999999954      51.707000000000001      48.140999999999998
    14   1      5.3489999999999966      49.923999999999992      48.140999999999998
    15   1      5.3489999999999966      51.707000000000001      46.358000000000004
    16   1      3.5659999999999954      49.923999999999992      49.923999999999992
    17   1      3.5659999999999954      51.707000000000001      51.707000000000001
    18   1      5.3489999999999966      49.923999999999992      51.707000000000001
    19   1      5.3489999999999966      51.707000000000001      49.923999999999992
    20   1      3.5659999999999954      49.923999999999992      53.489999999999995
    21   1      3.5659999999999954      51.707000000000001      55.273000000000003
    22   1      5.3489999999999966      49.923999999999992      55.273000000000003
    23   1      5.3489999999999966      51.707000000000001      53.489999999999995
    24   1      3.5659999999999954      49.923999999999992      57.056000000000012
    25   1      3.5659999999999954      51.707000000000001      58.839000000000006
    26   1      5.3489999999999966      49.923999999999992      58.839000000000006
    27   1      5.3489999999999966      51.707000000000001      57.056000000000012
    28   1      5.3489999999999966      51.707000000000001                  60.622
    29   1      3.5659999999999954      55.273000000000003      48.140999999999998
    30   1      5.3489999999999966      53.489999999999995      48.140999999999998
    31   1      5.3489999999999966      55.273000000000003      46.358000000000004
    32   1      3.5659999999999954      53.489999999999995      49.923999999999992
    33   1      3.5659999999999954      55.273000000000003      51.707000000000001
    34   1      5.3489999999999966      53.489999999999995      51.707000000000001
    35   1      5.3489999999999966      55.273000000000003      49.923999999999992
    36   1      3.5659999999999954      53.489999999999995      53.489999999999995
    37   1      3.5659999999999954      55.273000000000003      55.273000000000003
    38   1      5.3489999999999966      53.489999999999995      55.273000000000003
    39   1      5.3489999999999966      55.273000000000003      53.489999999999995
    40   1      3.5659999999999954      53.489999999999995      57.056000000000012
    41   1      3.5659999999999954      55.273000000000003      58.839000000000006
    42   1      5.3489999999999966      53.489999999999995      58.839000000000006
    43   1      5.3489999999999966      55.273000000000003      57.056000000000012
    44   1      5.3489999999999966      55.273000000000003                  60.622
    45   1      5.3489999999999966      57.056000000000012      48.140999999999998
    46   1      3.5659999999999954      57.056000000000012      49.923999999999992
    47   1      3.5659999999999954      58.839000000000006      51.707000000000001
    48   1      5.3489999999999966      57.056000000000012      51.707000000000001
    49   1      5.3489999999999966      58.839000000000006      49.923999999999992
    50   1      3.5659999999999954      57.056000000000012      53.489999999999995
    51   1      3.5659999999999954      58.839000000000006      55.273000000000003
    52   1      5.3489999999999966      57.056000000000012      55.273000000000003
    53   1      5.3489999999999966      58.839000000000006      53.489999999999995
    54   1      3.5659999999999954      57.056000000000012      57.056000000000012
    55   1      5.3489999999999966      57.056000000000012      58.839000000000006
    56   1      5.3489999999999966      58.839000000000006      57.056000000000012
    57   1      5.3489999999999966                  60.622      51.707000000000001
    58   1      5.3489999999999966                  60.622      55.273000000000003
    59   1      8.9149999999999991                  41.009      53.489999999999995
    60   1      8.9149999999999991      44.575000000000003      46.358000000000004
    61   1      7.1319999999999979      44.575000000000003      51.707000000000001
    62   1      8.9149999999999991      42.792000000000002      51.707000000000001
    63   1      8.9149999999999991      44.575000000000003      49.923999999999992
    64   1      7.1319999999999979      42.792000000000002      53.489999999999995
    65   1      7.1319999999999979      44.575000000000003      55.273000000000003
    66   1      8.9149999999999991      42.792000000000002      55.273000000000003
    67   1      8.9149999999999991      44.575000000000003      53.489999999999995
    68   1      8.9149999999999991      44.575000000000003      57.056000000000012
    69   1      8.9149999999999991      44.575000000000003                  60.622
    70   1      8.9149999999999991      46.358000000000004      44.575000000000003
    71   1      7.1319999999999979      46.358000000000004      46.358000000000004
    72   1      7.1319999999999979      48.140999999999998      48.140999999999998
    73   1      8.9149999999999991      46.358000000000004      48.140999999999998
    74   1      8.9149999999999991      48.140999999999998      46.358000000000004
    75   1      7.1319999999999979      46.358000000000004      49.923999999999992
    76   1      7.1319999999999979      48.140999999999998      51.707000000000001
    77   1      8.9149999999999991      46.358000000000004      51.707000000000001
    78   1      8.9149999999999991      48.140999999999998      49.923999999999992
    79   1      7.1319999999999979      46.358000000000004      53.489999999999995
    80   1      7.1319999999999979      48.140999999999998      55.273000000000003
    81   1      8.9149999999999991      46.358000000000004      55.273000000000003
    82   1      8.9149999999999991      48.140999999999998      53.489999999999995
    83   1      7.1319999999999979      46.358000000000004      57.056000000000012
    84   1      7.1319999999999979      48.140999999999998      58.839000000000006
    85   1      8.9149999999999991      46.358000000000004      58.839000000000006
    86   1      8.9149999999999991      48.140999999999998      57.056000000000012
    87   1      7.1319999999999979      46.358000000000004                  60.622
    88   1      8.9149999999999991      46.358000000000004      62.405000000000001
    89   1      8.9149999999999991      48.140999999999998                  60.622
    90   1      7.1319999999999979      51.707000000000001      44.575000000000003
    91   1      8.9149999999999991      49.923999999999992      44.575000000000003
    92   1      8.9149999999999991      51.707000000000001      42.792000000000002
    93   1      7.1319999999999979      49.923999999999992      46.358000000000004
    94   1      7.1319999999999979      51.707000000000001      48.140999999999998
    95   1      8.9149999999999991      49.923999999999992      48.140999999999998
    96   1      8.9149999999999991      51.707000000000001      46.358000000000004
    97   1      7.1319999999999979      49.923999999999992      49.923999999999992
    98   1      7.1319999999999979      51.707000000000001      51.707000000000001
    99   1      8.9149999999999991      49.923999999999992      51.707000000000001
   100   1      8.9149999999999991      51.707000000000001      49.923999999999992
   101   1      7.1319999999999979      49.923999999999992      53.489999999999995
   102   1      7.1319999999999979      51.707000000000001      55.273000000000003
   103   1      8.9149999999999991      49.923999999999992      55.273000000000003
   104   1      8.9149999999999991      51.707000000000001      53.489999999999995
   105   1      7.1319999999999979      49.923999999999992      57.056000000000012
   106   1      7.1319999999999979      51.707000000000001      58.839000000000006
   107   1      8.9149999999999991      49.923999999999992      58.839000000000006
   108   1      8.9149999999999991      51.707000000000001      57.056000000000012
   109   1      7.1319999999999979      49.923999999999992                  60.622
   110   1      7.1319999999999979      51.707000000000001      62.405000000000001
   111   1      8.9149999999999991      49.923999999999992      62.405000000000001
   112   1      8.9149999999999991      51.707000000000001                  60.622
   113   1      8.9149999999999991      51.707000000000001      64.188000000000002
   114   1      8.9149999999999991      53.489999999999995                  41.009
   115   1      7.1319999999999979      53.489999999999995      42.792000000000002
   116   1      7.1319999999999979      55.273000000000003      44.575000000000003
   117   1      8.9149999999999991      53.489999999999995      44.575000000000003
   118   1      8.9149999999999991      55.273000000000003      42.792000000000002
   119   1      7.1319999999999979      53.489999999999995      46.358000000000004
   120   1      7.1319999999999979      55.273000000000003      48.140999999999998
   121   1      8.9149999999999991      53.489999999999995      48.140999999999998
   122   1      8.9149999999999991      55.273000000000003      46.358000000000004
   123   1      7.1319999999999979      53.489999999999995      49.923999999999992
   124   1      7.1319999999999979      55.273000000000003      51.707000000000001
   125   1      8.9149999999999991      53.489999999999995      51.707000000000001
   126   1      8.9149999999999991      55.273000000000003      49.923999999999992
   127   1      7.1319999999999979      53.489999999999995      53.489999999999995
   128   1      7.1319999999999979      55.273000000000003      55.273000000000003
   129   1      8.9149999999999991      53.489999999999995      55.273000000000003
   130   1      8.9149999999999991      55.273000000000003      53.489999999999995
   131   1      7.1319999999999979      53.489999999999995      57.056000000000012
   132   1      7.1319999999999979      55.273000000000003      58.839000000000006
   133   1      8.9149999999999991      53.489999999999995      58.839000000000006
   134   1      8.9149999999999991      55.273000000000003      57.056000000000012
   135   1      7.1319999999999979      53.489999999999995                  60.622
   136   1      7.1319999999999979      55.273000000000003      62.405000000000001
   137   1      8.9149999999999991      53.489999999999995      62.405000000000001
   138   1      8.9149999999999991      55.273000000000003                  60.622
   139   1      7.1319999999999979      53.489999999999995      64.188000000000002
   140   1      8.9149999999999991      53.489999999999995      65.971000000000004
   141   1      8.9149999999999991      55.273000000000003      64.188000000000002
   142   1      8.9149999999999991      57.056000000000012      44.575000000000003
   143   1      7.1319999999999979      57.056000000000012      46.358000000000004
   144   1      7.1319999999999979      58.839000000000006      48.140999999999998
   145   1      8.9149999999999991      57.056000000000012      48.140999999999998
   146   1      8.9149999999999991      58.839000000000006      46.358000000000004
   147   1      7.1319999999999979      57.056000000000012      49.923999999999992
   148   1      7.1319999999999979      58.839000000000006      51.707000000000001
   149   1      8.9149999999999991      57.056000000000012      51.707000000000001
   150   1      8.9149999999999991      58.839000000000006      49.923999999999992
   151   1      7.1319999999999979      57.056000000000012      53.489999999999995
   152   1      7.1319999999999979      58.839000000000006      55.273000000000003
   153   1      8.9149999999999991      57.056000000000012      55.273000000000003
   154   1      8.9149999999999991      58.839000000000006      53.489999999999995
   155   1      7.1319999999999979      57.056000000000012      57.056000000000012
   156   1      7.1319999999999979      58.839000000000006      58.839000000000006
   157   1      8.9149999999999991      57.056000000000012      58.839000000000006
   158   1      8.9149999999999991      58.839000000000006      57.056000000000012
   159   1      7.1319999999999979      57.056000000000012                  60.622
   160   1      8.9149999999999991      57.056000000000012      62.405000000000001
   161   1      8.9149999999999991      58.839000000000006                  60.622
   162   1      8.9149999999999991                  60.622      44.575000000000003
   163   1      7.1319999999999979                  60.622      46.358000000000004
   164   1      8.9149999999999991                  60.622      48.140999999999998
   165   1      8.9149999999999991      62.405000000000001      46.358000000000004
   166   1      7.1319999999999979                  60.622      49.923999999999992
   167   1      7.1319999999999979      62.405000000000001      51.707000000000001
   168   1      8.9149999999999991                  60.622      51.707000000000001
   169   1      8.9149999999999991      62.405000000000001      49.923999999999992
   170   1      7.1319999999999979                  60.622      53.489999999999995
   171   1      7.1319999999999979      62.405000000000001      55.273000000000003
   172   1      8.9149999999999991                  60.622      55.273000000000003
   173   1      8.9149999999999991      62.405000000000001      53.489999999999995
   174   1      7.1319999999999979                  60.622      57.056000000000012
   175   1      8.9149999999999991                  60.622      58.839000000000006
   176   1      8.9149999999999991      62.405000000000001      57.056000000000012
   177   1      7.1319999999999979                  60.622                  60.622
   178   1      8.9149999999999991                  60.622      62.405000000000001
   179   1      8.9149999999999991      62.405000000000001                  60.622
   180   1      8.9149999999999991      64.188000000000002      51.707000000000001
   181   1      7.1319999999999979      64.188000000000002      53.489999999999995
   182   1      8.9149999999999991      64.188000000000002      55.273000000000003
   183   1      8.9149999999999991      65.971000000000004      53.489999999999995
   184   1      12.481000000000002      37.443000000000005      53.489999999999995
   185   1                  10.698                  41.009      48.140999999999998
   186   1      12.481000000000002      39.225999999999999      48.140999999999998
   187   1      12.481000000000002                  41.009      46.358000000000004
   188   1                  10.698                  41.009      51.707000000000001
   189   1      12.481000000000002      39.225999999999999      51.707000000000001
   190   1      12.481000000000002                  41.009      49.923999999999992
   191   1                  10.698      39.225999999999999      53.489999999999995
   192   1                  10.698                  41.009      55.273000000000003
   193   1      12.481000000000002      39.225999999999999      55.273000000000003
   194   1      12.481000000000002                  41.009      53.489999999999995
   195   1                  10.698                  41.009      58.839000000000006
   196   1      12.481000000000002      39.225999999999999      58.839000000000006
   197   1      12.481000000000002                  41.009      57.056000000000012
   198   1      12.481000000000002                  41.009                  60.622
   199   1                  10.698      44.575000000000003      44.575000000000003
   200   1      12.481000000000002      42.792000000000002      44.575000000000003
   201   1      12.481000000000002      44.575000000000003      42.792000000000002
   202   1                  10.698      42.792000000000002      46.358000000000004
   203   1                  10.698      44.575000000000003      48.140999999999998
   204   1      12.481000000000002      42.792000000000002      48.140999999999998
   205   1      12.481000000000002      44.575000000000003      46.358000000000004
   206   1                  10.698      42.792000000000002      49.923999999999992
   207   1                  10.698      44.575000000000003      51.707000000000001
   208   1      12.481000000000002      42.792000000000002      51.707000000000001
   209   1      12.481000000000002      44.575000000000003      49.923999999999992
   210   1                  10.698      42.792000000000002      53.489999999999995
   211   1                  10.698      44.575000000000003      55.273000000000003
   212   1      12.481000000000002      42.792000000000002      55.273000000000003
   213   1      12.481000000000002      44.575000000000003      53.489999999999995
   214   1                  10.698      42.792000000000002      57.056000000000012
   215   1                  10.698      44.575000000000003      58.839000000000006
   216   1      12.481000000000002      42.792000000000002      58.839000000000006
   217   1      12.481000000000002      44.575000000000003      57.056000000000012
   218   1                  10.698      42.792000000000002                  60.622
   219   1                  10.698      44.575000000000003      62.405000000000001
   220   1      12.481000000000002      42.792000000000002      62.405000000000001
   221   1      12.481000000000002      44.575000000000003                  60.622
   222   1      12.481000000000002      44.575000000000003      64.188000000000002
   223   1                  10.698      48.140999999999998                  41.009
   224   1      12.481000000000002      46.358000000000004                  41.009
   225   1      12.481000000000002      48.140999999999998      39.225999999999999
   226   1                  10.698      46.358000000000004      42.792000000000002
   227   1                  10.698      48.140999999999998      44.575000000000003
   228   1      12.481000000000002      46.358000000000004      44.575000000000003
   229   1      12.481000000000002      48.140999999999998      42.792000000000002
   230   1                  10.698      46.358000000000004      46.358000000000004
   231   1                  10.698      48.140999999999998      48.140999999999998
   232   1      12.481000000000002      46.358000000000004      48.140999999999998
   233   1      12.481000000000002      48.140999999999998      46.358000000000004
   234   1                  10.698      46.358000000000004      49.923999999999992
   235   1                  10.698      48.140999999999998      51.707000000000001
   236   1      12.481000000000002      46.358000000000004      51.707000000000001
   237   1      12.481000000000002      48.140999999999998      49.923999999999992
   238   1                  10.698      46.358000000000004      53.489999999999995
   239   1                  10.698      48.140999999999998      55.273000000000003
   240   1      12.481000000000002      46.358000000000004      55.273000000000003
   241   1      12.481000000000002      48.140999999999998      53.489999999999995
   242   1                  10.698      46.358000000000004      57.056000000000012
   243   1                  10.698      48.140999999999998      58.839000000000006
   244   1      12.481000000000002      46.358000000000004      58.839000000000006
   245   1      12.481000000000002      48.140999999999998      57.056000000000012
   246   1                  10.698      46.358000000000004                  60.622
   247   1                  10.698      48.140999999999998      62.405000000000001
   248   1      12.481000000000002      46.358000000000004      62.405000000000001
   249   1      12.481000000000002      48.140999999999998                  60.622
   250   1                  10.698      46.358000000000004      64.188000000000002
   251   1                  10.698      48.140999999999998      65.971000000000004
   252   1      12.481000000000002      46.358000000000004      65.971000000000004
   253   1      12.481000000000002      48.140999999999998      64.188000000000002
   254   1      12.481000000000002      48.140999999999998      67.753999999999991
   255   1                  10.698      51.707000000000001                  41.009
   256   1      12.481000000000002      49.923999999999992                  41.009
   257   1      12.481000000000002      51.707000000000001      39.225999999999999
   258   1                  10.698      49.923999999999992      42.792000000000002
   259   1                  10.698      51.707000000000001      44.575000000000003
   260   1      12.481000000000002      49.923999999999992      44.575000000000003
   261   1      12.481000000000002      51.707000000000001      42.792000000000002
   262   1                  10.698      49.923999999999992      46.358000000000004
   263   1                  10.698      51.707000000000001      48.140999999999998
   264   1      12.481000000000002      49.923999999999992      48.140999999999998
   265   1      12.481000000000002      51.707000000000001      46.358000000000004
   266   1                  10.698      49.923999999999992      49.923999999999992
   267   1                  10.698      51.707000000000001      51.707000000000001
   268   1      12.481000000000002      49.923999999999992      51.707000000000001
   269   1      12.481000000000002      51.707000000000001      49.923999999999992
   270   1                  10.698      49.923999999999992      53.489999999999995
   271   1                  10.698      51.707000000000001      55.273000000000003
   272   1      12.481000000000002      49.923999999999992      55.273000000000003
   273   1      12.481000000000002      51.707000000000001      53.489999999999995
   274   1                  10.698      49.923999999999992      57.056000000000012
   275   1                  10.698      51.707000000000001      58.839000000000006
   276   1      12.481000000000002      49.923999999999992      58.839000000000006
   277   1      12.481000000000002      51.707000000000001      57.056000000000012
   278   1                  10.698      49.923999999999992                  60.622
   279   1                  10.698      51.707000000000001      62.405000000000001
   280   1      12.481000000000002      49.923999999999992      62.405000000000001
   281   1      12.481000000000002      51.707000000000001                  60.622
   282   1                  10.698      49.923999999999992      64.188000000000002
   283   1                  10.698      51.707000000000001      65.971000000000004
   284   1      12.481000000000002      49.923999999999992      65.971000000000004
   285   1      12.481000000000002      51.707000000000001      64.188000000000002
   286   1      12.481000000000002      51.707000000000001      67.753999999999991
   287   1      12.481000000000002      53.489999999999995      37.443000000000005
   288   1                  10.698      53.489999999999995      39.225999999999999
   289   1                  10.698      55.273000000000003                  41.009
   290   1      12.481000000000002      53.489999999999995                  41.009
   291   1      12.481000000000002      55.273000000000003      39.225999999999999
   292   1                  10.698      53.489999999999995      42.792000000000002
   293   1                  10.698      55.273000000000003      44.575000000000003
   294   1      12.481000000000002      53.489999999999995      44.575000000000003
   295   1      12.481000000000002      55.273000000000003      42.792000000000002
   296   1                  10.698      53.489999999999995      46.358000000000004
   297   1                  10.698      55.273000000000003      48.140999999999998
   298   1      12.481000000000002      53.489999999999995      48.140999999999998
   299   1      12.481000000000002      55.273000000000003      46.358000000000004
   300   1                  10.698      53.489999999999995      49.923999999999992
   301   1                  10.698      55.273000000000003      51.707000000000001
   302   1      12.481000000000002      53.489999999999995      51.707000000000001
   303   1      12.481000000000002      55.273000000000003      49.923999999999992
   304   1                  10.698      53.489999999999995      53.489999999999995
   305   1                  10.698      55.273000000000003      55.273000000000003
   306   1      12.481000000000002      53.489999999999995      55.273000000000003
   307   1      12.481000000000002      55.273000000000003      53.489999999999995
   308   1                  10.698      53.489999999999995      57.056000000000012
   309   1                  10.698      55.273000000000003      58.839000000000006
   310   1      12.481000000000002      53.489999999999995      58.839000000000006
   311   1      12.481000000000002      55.273000000000003      57.056000000000012
   312   1                  10.698      53.489999999999995                  60.622
   313   1                  10.698      55.273000000000003      62.405000000000001
   314   1      12.481000000000002      53.489999999999995      62.405000000000001
   315   1      12.481000000000002      55.273000000000003                  60.622
   316   1                  10.698      53.489999999999995      64.188000000000002
   317   1                  10.698      55.273000000000003      65.971000000000004
   318   1      12.481000000000002      53.489999999999995      65.971000000000004
   319   1      12.481000000000002      55.273000000000003      64.188000000000002
   320   1                  10.698      53.489999999999995      67.753999999999991
   321   1      12.481000000000002      53.489999999999995      69.537000000000006
   322   1      12.481000000000002      55.273000000000003      67.753999999999991
   323   1                  10.698      58.839000000000006                  41.009
   324   1      12.481000000000002      57.056000000000012                  41.009
   325   1      12.481000000000002      58.839000000000006      39.225999999999999
   326   1                  10.698      57.056000000000012      42.792000000000002
   327   1                  10.698      58.839000000000006      44.575000000000003
   328   1      12.481000000000002      57.056000000000012      44.575000000000003
   329   1      12.481000000000002      58.839000000000006      42.792000000000002
   330   1                  10.698      57.056000000000012      46.358000000000004
   331   1                  10.698      58.839000000000006      48.140999999999998
   332   1      12.481000000000002      57.056000000000012      48.140999999999998
   333   1      12.481000000000002      58.839000000000006      46.358000000000004
   334   1                  10.698      57.056000000000012      49.923999999999992
   335   1                  10.698      58.839000000000006      51.707000000000001
   336   1      12.481000000000002      57.056000000000012      51.707000000000001
   337   1      12.481000000000002      58.839000000000006      49.923999999999992
   338   1                  10.698      57.056000000000012      53.489999999999995
   339   1                  10.698      58.839000000000006      55.273000000000003
   340   1      12.481000000000002      57.056000000000012      55.273000000000003
   341   1      12.481000000000002      58.839000000000006      53.489999999999995
   342   1                  10.698      57.056000000000012      57.056000000000012
   343   1                  10.698      58.839000000000006      58.839000000000006
   344   1      12.481000000000002      57.056000000000012      58.839000000000006
   345   1      12.481000000000002      58.839000000000006      57.056000000000012
   346   1                  10.698      57.056000000000012                  60.622
   347   1                  10.698      58.839000000000006      62.405000000000001
   348   1      12.481000000000002      57.056000000000012      62.405000000000001
   349   1      12.481000000000002      58.839000000000006                  60.622
   350   1                  10.698      57.056000000000012      64.188000000000002
   351   1                  10.698      58.839000000000006      65.971000000000004
   352   1      12.481000000000002      57.056000000000012      65.971000000000004
   353   1      12.481000000000002      58.839000000000006      64.188000000000002
   354   1      12.481000000000002      58.839000000000006      67.753999999999991
   355   1      12.481000000000002                  60.622                  41.009
   356   1                  10.698                  60.622      42.792000000000002
   357   1                  10.698      62.405000000000001      44.575000000000003
   358   1      12.481000000000002                  60.622      44.575000000000003