model_files/Pt/Pt_10000/Pt_310/data.Pt_310_fcc_10081 (written by ASE) 

10081 	 atoms 
1  atom types
0.0                      62  xlo xhi
0.0                      62  ylo yhi
0.0                      62  zlo zhi


Atoms 

     1   1      1.9599999999999971      23.519999999999996      25.479999999999997
     2   1      1.9599999999999971      25.479999999999997      23.519999999999996
     3   1      1.9599999999999971      23.519999999999996      29.399999999999999
     4   1      1.9599999999999971      25.479999999999997      27.439999999999994
     5   1      1.9599999999999971      23.519999999999996      33.319999999999993
     6   1      1.9599999999999971      25.479999999999997      31.359999999999996
     7   1      1.9599999999999971      23.519999999999996      37.240000000000002
     8   1      1.9599999999999971      25.479999999999997      35.280000000000001
     9   1      1.9599999999999971      25.479999999999997      39.199999999999996
    10   1      1.9599999999999971      27.439999999999994      25.479999999999997
    11   1      1.9599999999999971      29.399999999999999      23.519999999999996
    12   1                       0      29.399999999999999      29.399999999999999
    13   1      1.9599999999999971      27.439999999999994      29.399999999999999
    14   1      1.9599999999999971      29.399999999999999      27.439999999999994
    15   1                       0      29.399999999999999      33.319999999999993
    16   1      1.9599999999999971      27.439999999999994      33.319999999999993
    17   1      1.9599999999999971      29.399999999999999      31.359999999999996
    18   1      1.9599999999999971      27.439999999999994      37.240000000000002
    19   1      1.9599999999999971      29.399999999999999      35.280000000000001
    20   1      1.9599999999999971      29.399999999999999      39.199999999999996
    21   1      1.9599999999999971      31.359999999999996      25.479999999999997
    22   1      1.9599999999999971      33.319999999999993      23.519999999999996
    23   1                       0      33.319999999999993      29.399999999999999
    24   1      1.9599999999999971      31.359999999999996      29.399999999999999
    25   1      1.9599999999999971      33.319999999999993      27.439999999999994
    26   1                       0      31.359999999999996      31.359999999999996
    27   1                       0      33.319999999999993      33.319999999999993
    28   1      1.9599999999999971      31.359999999999996      33.319999999999993
    29   1      1.9599999999999971      33.319999999999993      31.359999999999996
    30   1      1.9599999999999971      31.359999999999996      37.240000000000002
    31   1      1.9599999999999971      33.319999999999993      35.280000000000001
    32   1      1.9599999999999971      33.319999999999993      39.199999999999996
    33   1      1.9599999999999971      35.280000000000001      25.479999999999997
    34   1      1.9599999999999971      37.240000000000002      23.519999999999996
    35   1      1.9599999999999971      35.280000000000001      29.399999999999999
    36   1      1.9599999999999971      37.240000000000002      27.439999999999994
    37   1      1.9599999999999971      35.280000000000001      33.319999999999993
    38   1      1.9599999999999971      37.240000000000002      31.359999999999996
    39   1      1.9599999999999971      35.280000000000001      37.240000000000002
    40   1      1.9599999999999971      37.240000000000002      35.280000000000001
    41   1      1.9599999999999971      37.240000000000002      39.199999999999996
    42   1      1.9599999999999971      39.199999999999996      25.479999999999997
    43   1      1.9599999999999971      39.199999999999996      29.399999999999999
    44   1      1.9599999999999971      39.199999999999996      33.319999999999993
    45   1      1.9599999999999971      39.199999999999996      37.240000000000002
    46   1       5.879999999999999      11.759999999999998      13.719999999999997
    47   1       5.879999999999999      13.719999999999997      11.759999999999998
    48   1       5.879999999999999      11.759999999999998      17.640000000000001
    49   1       5.879999999999999      13.719999999999997      15.679999999999998
    50   1       5.879999999999999      11.759999999999998      21.559999999999999
    51   1       5.879999999999999      13.719999999999997      19.599999999999998
    52   1       5.879999999999999      11.759999999999998      25.479999999999997
    53   1       5.879999999999999      13.719999999999997      23.519999999999996
    54   1       5.879999999999999      11.759999999999998      29.399999999999999
    55   1       5.879999999999999      13.719999999999997      27.439999999999994
    56   1       5.879999999999999      11.759999999999998      33.319999999999993
    57   1       5.879999999999999      13.719999999999997      31.359999999999996
    58   1       5.879999999999999      11.759999999999998      37.240000000000002
    59   1       5.879999999999999      13.719999999999997      35.280000000000001
    60   1       5.879999999999999      11.759999999999998      41.159999999999997
    61   1       5.879999999999999      13.719999999999997      39.199999999999996
    62   1       5.879999999999999      11.759999999999998      45.079999999999998
    63   1       5.879999999999999      13.719999999999997      43.119999999999997
    64   1       5.879999999999999      11.759999999999998                      49
    65   1       5.879999999999999      13.719999999999997      47.039999999999999
    66   1       5.879999999999999      13.719999999999997      50.959999999999994
    67   1       5.879999999999999      15.679999999999998      13.719999999999997
    68   1       5.879999999999999      17.640000000000001      11.759999999999998
    69   1      3.9199999999999977      17.640000000000001      17.640000000000001
    70   1       5.879999999999999      15.679999999999998      17.640000000000001
    71   1       5.879999999999999      17.640000000000001      15.679999999999998
    72   1      3.9199999999999977      17.640000000000001      21.559999999999999
    73   1       5.879999999999999      15.679999999999998      21.559999999999999
    74   1       5.879999999999999      17.640000000000001      19.599999999999998
    75   1      3.9199999999999977      17.640000000000001      25.479999999999997
    76   1       5.879999999999999      15.679999999999998      25.479999999999997
    77   1       5.879999999999999      17.640000000000001      23.519999999999996
    78   1      3.9199999999999977      17.640000000000001      29.399999999999999
    79   1       5.879999999999999      15.679999999999998      29.399999999999999
    80   1       5.879999999999999      17.640000000000001      27.439999999999994
    81   1      3.9199999999999977      17.640000000000001      33.319999999999993
    82   1       5.879999999999999      15.679999999999998      33.319999999999993
    83   1       5.879999999999999      17.640000000000001      31.359999999999996
    84   1      3.9199999999999977      17.640000000000001      37.240000000000002
    85   1       5.879999999999999      15.679999999999998      37.240000000000002
    86   1       5.879999999999999      17.640000000000001      35.280000000000001
    87   1      3.9199999999999977      17.640000000000001      41.159999999999997
    88   1       5.879999999999999      15.679999999999998      41.159999999999997
    89   1       5.879999999999999      17.640000000000001      39.199999999999996
    90   1      3.9199999999999977      17.640000000000001      45.079999999999998
    91   1       5.879999999999999      15.679999999999998      45.079999999999998
    92   1       5.879999999999999      17.640000000000001      43.119999999999997
    93   1       5.879999999999999      15.679999999999998                      49
    94   1       5.879999999999999      17.640000000000001      47.039999999999999
    95   1       5.879999999999999      17.640000000000001      50.959999999999994
    96   1       5.879999999999999      19.599999999999998      13.719999999999997
    97   1       5.879999999999999      21.559999999999999      11.759999999999998
    98   1      3.9199999999999977      21.559999999999999      17.640000000000001
    99   1       5.879999999999999      19.599999999999998      17.640000000000001
   100   1       5.879999999999999      21.559999999999999      15.679999999999998
   101   1      3.9199999999999977      19.599999999999998      19.599999999999998
   102   1      3.9199999999999977      21.559999999999999      21.559999999999999
   103   1       5.879999999999999      19.599999999999998      21.559999999999999
   104   1       5.879999999999999      21.559999999999999      19.599999999999998
   105   1      3.9199999999999977      19.599999999999998      23.519999999999996
   106   1      3.9199999999999977      21.559999999999999      25.479999999999997
   107   1       5.879999999999999      19.599999999999998      25.479999999999997
   108   1       5.879999999999999      21.559999999999999      23.519999999999996
   109   1      3.9199999999999977      19.599999999999998      27.439999999999994
   110   1      3.9199999999999977      21.559999999999999      29.399999999999999
   111   1       5.879999999999999      19.599999999999998      29.399999999999999
   112   1       5.879999999999999      21.559999999999999      27.439999999999994
   113   1      3.9199999999999977      19.599999999999998      31.359999999999996
   114   1      3.9199999999999977      21.559999999999999      33.319999999999993
   115   1       5.879999999999999      19.599999999999998      33.319999999999993
   116   1       5.879999999999999      21.559999999999999      31.359999999999996
   117   1      3.9199999999999977      19.599999999999998      35.280000000000001
   118   1      3.9199999999999977      21.559999999999999      37.240000000000002
   119   1       5.879999999999999      19.599999999999998      37.240000000000002
   120   1       5.879999999999999      21.559999999999999      35.280000000000001
   121   1      3.9199999999999977      19.599999999999998      39.199999999999996
   122   1      3.9199999999999977      21.559999999999999      41.159999999999997
   123   1       5.879999999999999      19.599999999999998      41.159999999999997
   124   1       5.879999999999999      21.559999999999999      39.199999999999996
   125   1      3.9199999999999977      19.599999999999998      43.119999999999997
   126   1      3.9199999999999977      21.559999999999999      45.079999999999998
   127   1       5.879999999999999      19.599999999999998      45.079999999999998
   128   1       5.879999999999999      21.559999999999999      43.119999999999997
   129   1       5.879999999999999      19.599999999999998                      49
   130   1       5.879999999999999      21.559999999999999      47.039999999999999
   131   1       5.879999999999999      21.559999999999999      50.959999999999994
   132   1       5.879999999999999      23.519999999999996      13.719999999999997
   133   1       5.879999999999999      25.479999999999997      11.759999999999998
   134   1      3.9199999999999977      25.479999999999997      17.640000000000001
   135   1       5.879999999999999      23.519999999999996      17.640000000000001
   136   1       5.879999999999999      25.479999999999997      15.679999999999998
   137   1      3.9199999999999977      23.519999999999996      19.599999999999998
   138   1      3.9199999999999977      25.479999999999997      21.559999999999999
   139   1       5.879999999999999      23.519999999999996      21.559999999999999
   140   1       5.879999999999999      25.479999999999997      19.599999999999998
   141   1      3.9199999999999977      23.519999999999996      23.519999999999996
   142   1      3.9199999999999977      25.479999999999997      25.479999999999997
   143   1       5.879999999999999      23.519999999999996      25.479999999999997
   144   1       5.879999999999999      25.479999999999997      23.519999999999996
   145   1      3.9199999999999977      23.519999999999996      27.439999999999994
   146   1      3.9199999999999977      25.479999999999997      29.399999999999999
   147   1       5.879999999999999      23.519999999999996      29.399999999999999
   148   1       5.879999999999999      25.479999999999997      27.439999999999994
   149   1      3.9199999999999977      23.519999999999996      31.359999999999996
   150   1      3.9199999999999977      25.479999999999997      33.319999999999993
   151   1       5.879999999999999      23.519999999999996      33.319999999999993
   152   1       5.879999999999999      25.479999999999997      31.359999999999996
   153   1      3.9199999999999977      23.519999999999996      35.280000000000001
   154   1      3.9199999999999977      25.479999999999997      37.240000000000002
   155   1       5.879999999999999      23.519999999999996      37.240000000000002
   156   1       5.879999999999999      25.479999999999997      35.280000000000001
   157   1      3.9199999999999977      23.519999999999996      39.199999999999996
   158   1      3.9199999999999977      25.479999999999997      41.159999999999997
   159   1       5.879999999999999      23.519999999999996      41.159999999999997
   160   1       5.879999999999999      25.479999999999997      39.199999999999996
   161   1      3.9199999999999977      23.519999999999996      43.119999999999997
   162   1      3.9199999999999977      25.479999999999997      45.079999999999998
   163   1       5.879999999999999      23.519999999999996      45.079999999999998
   164   1       5.879999999999999      25.479999999999997      43.119999999999997
   165   1       5.879999999999999      23.519999999999996                      49
   166   1       5.879999999999999      25.479999999999997      47.039999999999999
   167   1       5.879999999999999      25.479999999999997      50.959999999999994
   168   1       5.879999999999999      27.439999999999994      13.719999999999997
   169   1       5.879999999999999      29.399999999999999      11.759999999999998
   170   1      3.9199999999999977      29.399999999999999      17.640000000000001
   171   1       5.879999999999999      27.439999999999994      17.640000000000001
   172   1       5.879999999999999      29.399999999999999      15.679999999999998
   173   1      3.9199999999999977      27.439999999999994      19.599999999999998
   174   1      3.9199999999999977      29.399999999999999      21.559999999999999
   175   1       5.879999999999999      27.439999999999994      21.559999999999999
   176   1       5.879999999999999      29.399999999999999      19.599999999999998
   177   1      3.9199999999999977      27.439999999999994      23.519999999999996
   178   1      3.9199999999999977      29.399999999999999      25.479999999999997
   179   1       5.879999999999999      27.439999999999994      25.479999999999997
   180   1       5.879999999999999      29.399999999999999      23.519999999999996
   181   1      3.9199999999999977      27.439999999999994      27.439999999999994
   182   1      3.9199999999999977      29.399999999999999      29.399999999999999
   183   1       5.879999999999999      27.439999999999994      29.399999999999999
   184   1       5.879999999999999      29.399999999999999      27.439999999999994
   185   1      3.9199999999999977      27.439999999999994      31.359999999999996
   186   1      3.9199999999999977      29.399999999999999      33.319999999999993
   187   1       5.879999999999999      27.439999999999994      33.319999999999993
   188   1       5.879999999999999      29.399999999999999      31.359999999999996
   189   1      3.9199999999999977      27.439999999999994      35.280000000000001
   190   1      3.9199999999999977      29.399999999999999      37.240000000000002
   191   1       5.879999999999999      27.439999999999994      37.240000000000002
   192   1       5.879999999999999      29.399999999999999      35.280000000000001
   193   1      3.9199999999999977      27.439999999999994      39.199999999999996
   194   1      3.9199999999999977      29.399999999999999      41.159999999999997
   195   1       5.879999999999999      27.439999999999994      41.159999999999997
   196   1       5.879999999999999      29.399999999999999      39.199999999999996
   197   1      3.9199999999999977      27.439999999999994      43.119999999999997
   198   1      3.9199999999999977      29.399999999999999      45.079999999999998
   199   1       5.879999999999999      27.439999999999994      45.079999999999998
   200   1       5.879999999999999      29.399999999999999      43.119999999999997
   201   1       5.879999999999999      27.439999999999994                      49
   202   1       5.879999999999999      29.399999999999999      47.039999999999999
   203   1       5.879999999999999      29.399999999999999      50.959999999999994
   204   1       5.879999999999999      31.359999999999996      13.719999999999997
   205   1       5.879999999999999      33.319999999999993      11.759999999999998
   206   1      3.9199999999999977      33.319999999999993      17.640000000000001
   207   1       5.879999999999999      31.359999999999996      17.640000000000001
   208   1       5.879999999999999      33.319999999999993      15.679999999999998
   209   1      3.9199999999999977      31.359999999999996      19.599999999999998
   210   1      3.9199999999999977      33.319999999999993      21.559999999999999
   211   1       5.879999999999999      31.359999999999996      21.559999999999999
   212   1       5.879999999999999      33.319999999999993      19.599999999999998
   213   1      3.9199999999999977      31.359999999999996      23.519999999999996
   214   1      3.9199999999999977      33.319999999999993      25.479999999999997
   215   1       5.879999999999999      31.359999999999996      25.479999999999997
   216   1       5.879999999999999      33.319999999999993      23.519999999999996
   217   1      3.9199999999999977      31.359999999999996      27.439999999999994
   218   1      3.9199999999999977      33.319999999999993      29.399999999999999
   219   1       5.879999999999999      31.359999999999996      29.399999999999999
   220   1       5.879999999999999      33.319999999999993      27.439999999999994
   221   1      3.9199999999999977      31.359999999999996      31.359999999999996
   222   1      3.9199999999999977      33.319999999999993      33.319999999999993
   223   1       5.879999999999999      31.359999999999996      33.319999999999993
   224   1       5.879999999999999      33.319999999999993      31.359999999999996
   225   1      3.9199999999999977      31.359999999999996      35.280000000000001
   226   1      3.9199999999999977      33.319999999999993      37.240000000000002
   227   1       5.879999999999999      31.359999999999996      37.240000000000002
   228   1       5.879999999999999      33.319999999999993      35.280000000000001
   229   1      3.9199999999999977      31.359999999999996      39.199999999999996
   230   1      3.9199999999999977      33.319999999999993      41.159999999999997
   231   1       5.879999999999999      31.359999999999996      41.159999999999997
   232   1       5.879999999999999      33.319999999999993      39.199999999999996
   233   1      3.9199999999999977      31.359999999999996      43.119999999999997
   234   1      3.9199999999999977      33.319999999999993      45.079999999999998
   235   1       5.879999999999999      31.359999999999996      45.079999999999998
   236   1       5.879999999999999      33.319999999999993      43.119999999999997
   237   1       5.879999999999999      31.359999999999996                      49
   238   1       5.879999999999999      33.319999999999993      47.039999999999999
   239   1       5.879999999999999      33.319999999999993      50.959999999999994
   240   1       5.879999999999999      35.280000000000001      13.719999999999997
   241   1       5.879999999999999      37.240000000000002      11.759999999999998
   242   1      3.9199999999999977      37.240000000000002      17.640000000000001
   243   1       5.879999999999999      35.280000000000001      17.640000000000001
   244   1       5.879999999999999      37.240000000000002      15.679999999999998
   245   1      3.9199999999999977      35.280000000000001      19.599999999999998
   246   1      3.9199999999999977      37.240000000000002      21.559999999999999
   247   1       5.879999999999999      35.280000000000001      21.559999999999999
   248   1       5.879999999999999      37.240000000000002      19.599999999999998
   249   1      3.9199999999999977      35.280000000000001      23.519999999999996
   250   1      3.9199999999999977      37.240000000000002      25.479999999999997
   251   1       5.879999999999999      35.280000000000001      25.479999999999997
   252   1       5.879999999999999      37.240000000000002      23.519999999999996
   253   1      3.9199999999999977      35.280000000000001      27.439999999999994
   254   1      3.9199999999999977      37.240000000000002      29.399999999999999
   255   1       5.879999999999999      35.280000000000001      29.399999999999999
   256   1       5.879999999999999      37.240000000000002      27.439999999999994
   257   1      3.9199999999999977      35.280000000000001      31.359999999999996
   258   1      3.9199999999999977      37.240000000000002      33.319999999999993
   259   1       5.879999999999999      35.280000000000001      33.319999999999993
   260   1       5.879999999999999      37.240000000000002      31.359999999999996
   261   1      3.9199999999999977      35.280000000000001      35.280000000000001
   262   1      3.9199999999999977      37.240000000000002      37.240000000000002
   263   1       5.879999999999999      35.280000000000001      37.240000000000002
   264   1       5.879999999999999      37.240000000000002      35.280000000000001
   265   1      3.9199999999999977      35.280000000000001      39.199999999999996
   266   1      3.9199999999999977      37.240000000000002      41.159999999999997
   267   1       5.879999999999999      35.280000000000001      41.159999999999997
   268   1       5.879999999999999      37.240000000000002      39.199999999999996
   269   1      3.9199999999999977      35.280000000000001      43.119999999999997
   270   1      3.9199999999999977      37.240000000000002      45.079999999999998
   271   1       5.879999999999999      35.280000000000001      45.079999999999998
   272   1       5.879999999999999      37.240000000000002      43.119999999999997
   273   1       5.879999999999999      35.280000000000001                      49
   274   1       5.879999999999999      37.240000000000002      47.039999999999999
   275   1       5.879999999999999      37.240000000000002      50.959999999999994
   276   1       5.879999999999999      39.199999999999996      13.719999999999997
   277   1       5.879999999999999      41.159999999999997      11.759999999999998
   278   1      3.9199999999999977      41.159999999999997      17.640000000000001
   279   1       5.879999999999999      39.199999999999996      17.640000000000001
   280   1       5.879999999999999      41.159999999999997      15.679999999999998
   281   1      3.9199999999999977      39.199999999999996      19.599999999999998
   282   1      3.9199999999999977      41.159999999999997      21.559999999999999
   283   1       5.879999999999999      39.199999999999996      21.559999999999999
   284   1       5.879999999999999      41.159999999999997      19.599999999999998
   285   1      3.9199999999999977      39.199999999999996      23.519999999999996
   286   1      3.9199999999999977      41.159999999999997      25.479999999999997
   287   1       5.879999999999999      39.199999999999996      25.479999999999997
   288   1       5.879999999999999      41.159999999999997      23.519999999999996
   289   1      3.9199999999999977      39.199999999999996      27.439999999999994
   290   1      3.9199999999999977      41.159999999999997      29.399999999999999
   291   1       5.879999999999999      39.199999999999996      29.399999999999999
   292   1       5.879999999999999      41.159999999999997      27.439999999999994
   293   1      3.9199999999999977      39.199999999999996      31.359999999999996
   294   1      3.9199999999999977      41.159999999999997      33.319999999999993
   295   1       5.879999999999999      39.199999999999996      33.319999999999993
   296   1       5.879999999999999      41.159999999999997      31.359999999999996
   297   1      3.9199999999999977      39.199999999999996      35.280000000000001
   298   1      3.9199999999999977      41.159999999999997      37.240000000000002
   299   1       5.879999999999999      39.199999999999996      37.240000000000002
   300   1       5.879999999999999      41.159999999999997      35.280000000000001
   301   1      3.9199999999999977      39.199999999999996      39.199999999999996
   302   1      3.9199999999999977      41.159999999999997      41.159999999999997
   303   1       5.879999999999999      39.199999999999996      41.159999999999997
   304   1       5.879999999999999      41.159999999999997      39.199999999999996
   305   1      3.9199999999999977      39.199999999999996      43.119999999999997
   306   1      3.9199999999999977      41.159999999999997      45.079999999999998
   307   1       5.879999999999999      39.199999999999996      45.079999999999998
   308   1       5.879999999999999      41.159999999999997      43.119999999999997
   309   1       5.879999999999999      39.199999999999996                      49
   310   1       5.879999999999999      41.159999999999997      47.039999999999999
   311   1       5.879999999999999      41.159999999999997      50.959999999999994
   312   1       5.879999999999999      43.119999999999997      13.719999999999997
   313   1       5.879999999999999      45.079999999999998      11.759999999999998
   314   1      3.9199999999999977      45.079999999999998      17.640000000000001
   315   1       5.879999999999999      43.119999999999997      17.640000000000001
   316   1       5.879999999999999      45.079999999999998      15.679999999999998
   317   1      3.9199999999999977      43.119999999999997      19.599999999999998
   318   1      3.9199999999999977      45.079999999999998      21.559999999999999
   319   1       5.879999999999999      43.119999999999997      21.559999999999999
   320   1       5.879999999999999      45.079999999999998      19.599999999999998
   321   1      3.9199999999999977      43.119999999999997      23.519999999999996
   322   1      3.9199999999999977      45.079999999999998      25.479999999999997
   323   1       5.879999999999999      43.119999999999997      25.479999999999997
   324   1       5.879999999999999      45.079999999999998      23.519999999999996
   325   1      3.9199999999999977      43.119999999999997      27.439999999999994
   326   1      3.9199999999999977      45.079999999999998      29.399999999999999
   327   1       5.879999999999999      43.119999999999997      29.399999999999999
   328   1       5.879999999999999      45.079999999999998      27.439999999999994
   329   1      3.9199999999999977      43.119999999999997      31.359999999999996
   330   1      3.9199999999999977      45.079999999999998      33.319999999999993
   331   1       5.879999999999999      43.119999999999997      33.319999999999993
   332   1       5.879999999999999      45.079999999999998      31.359999999999996
   333   1      3.9199999999999977      43.119999999999997      35.280000000000001
   334   1      3.9199999999999977      45.079999999999998      37.240000000000002
   335   1       5.879999999999999      43.119999999999997      37.240000000000002
   336   1       5.879999999999999      45.079999999999998      35.280000000000001
   337   1      3.9199999999999977      43.119999999999997      39.199999999999996
   338   1      3.9199999999999977      45.079999999999998      41.159999999999997
   339   1       5.879999999999999      43.119999999999997      41.159999999999997
   340   1       5.879999999999999      45.079999999999998      39.199999999999996
   341   1      3.9199999999999977      43.119999999999997      43.119999999999997
   342   1      3.9199999999999977      45.079999999999998      45.079999999999998
   343   1       5.879999999999999      43.119999999999997      45.079999999999998
   344   1       5.879999999999999      45.079999999999998      43.119999999999997
   345   1       5.879999999999999      43.119999999999997                      49
   346   1       5.879999999999999      45.079999999999998      47.039999999999999
   347   1       5.879999999999999      45.079999999999998      50.959999999999994
   348   1       5.879999999999999      47.039999999999999      13.719999999999997
   349   1       5.879999999999999                      49      11.759999999999998
   350   1       5.879999999999999      47.039999999999999      17.640000000000001
   351   1       5.879999999999999                      49      15.679999999999998
   352   1       5.879999999999999      47.039999999999999      21.559999999999999
   353   1       5.879999999999999                      49      19.599999999999998
   354   1       5.879999999999999      47.039999999999999      25.479999999999997
   355   1       5.879999999999999                      49      23.519999999999996
   356   1       5.879999999999999      47.039999999999999      29.399999999999999
   357   1       5.879999999999999                      49      27.439999999999994
   358   1       5.879999999999999      47.039999999999999      33.319999999999993