model_files/NiFeCrCoAl/NiFeCrCoAl_30000/NiFeCrCoAl_510/NiFeCrCoAl_510_fcc_29899_temp.data (written by ASE) 

29899 	 atoms 
5  atom types
0.0                      81  xlo xhi
0.0                      81  ylo yhi
0.0                      81  zlo zhi


Atoms 

     1   1      1.8049999999999997      30.684999999999999      32.490000000000002
     2   1      1.8049999999999997      30.684999999999999      36.100000000000001
     3   1      1.8049999999999997      30.684999999999999      39.710000000000001
     4   1      1.8049999999999997      30.684999999999999      43.319999999999993
     5   1      1.8049999999999997      30.684999999999999      46.929999999999993
     6   1      1.8049999999999997      32.490000000000002      30.684999999999999
     7   1      1.8049999999999997      32.490000000000002      34.295000000000002
     8   1      1.8049999999999997      34.295000000000002      32.490000000000002
     9   1      1.8049999999999997      32.490000000000002      37.905000000000001
    10   1      1.8049999999999997      34.295000000000002      36.100000000000001
    11   1      1.8049999999999997      32.490000000000002      41.514999999999993
    12   1      1.8049999999999997      34.295000000000002      39.710000000000001
    13   1      1.8049999999999997      32.490000000000002      45.124999999999993
    14   1      1.8049999999999997      34.295000000000002      43.319999999999993
    15   1      1.8049999999999997      32.490000000000002      48.734999999999992
    16   1      1.8049999999999997      34.295000000000002      46.929999999999993
    17   1      1.8049999999999997      36.100000000000001      30.684999999999999
    18   1      1.8049999999999997      36.100000000000001      34.295000000000002
    19   1      1.8049999999999997      37.905000000000001      32.490000000000002
    20   1      1.8049999999999997      36.100000000000001      37.905000000000001
    21   1      1.8049999999999997      37.905000000000001      36.100000000000001
    22   1      1.8049999999999997      36.100000000000001      41.514999999999993
    23   1      1.8049999999999997      37.905000000000001      39.710000000000001
    24   1      1.8049999999999997      36.100000000000001      45.124999999999993
    25   1      1.8049999999999997      37.905000000000001      43.319999999999993
    26   1      1.8049999999999997      36.100000000000001      48.734999999999992
    27   1      1.8049999999999997      37.905000000000001      46.929999999999993
    28   1      1.8049999999999997      39.710000000000001      30.684999999999999
    29   1      1.8049999999999997      39.710000000000001      34.295000000000002
    30   1      1.8049999999999997      41.514999999999993      32.490000000000002
    31   1      1.8049999999999997      39.710000000000001      37.905000000000001
    32   1      1.8049999999999997      41.514999999999993      36.100000000000001
    33   1                       0      39.710000000000001      39.710000000000001
    34   1      1.8049999999999997      39.710000000000001      41.514999999999993
    35   1      1.8049999999999997      41.514999999999993      39.710000000000001
    36   1      1.8049999999999997      39.710000000000001      45.124999999999993
    37   1      1.8049999999999997      41.514999999999993      43.319999999999993
    38   1      1.8049999999999997      39.710000000000001      48.734999999999992
    39   1      1.8049999999999997      41.514999999999993      46.929999999999993
    40   1      1.8049999999999997      43.319999999999993      30.684999999999999
    41   1      1.8049999999999997      43.319999999999993      34.295000000000002
    42   1      1.8049999999999997      45.124999999999993      32.490000000000002
    43   1      1.8049999999999997      43.319999999999993      37.905000000000001
    44   1      1.8049999999999997      45.124999999999993      36.100000000000001
    45   1      1.8049999999999997      43.319999999999993      41.514999999999993
    46   1      1.8049999999999997      45.124999999999993      39.710000000000001
    47   1      1.8049999999999997      43.319999999999993      45.124999999999993
    48   1      1.8049999999999997      45.124999999999993      43.319999999999993
    49   1      1.8049999999999997      43.319999999999993      48.734999999999992
    50   1      1.8049999999999997      45.124999999999993      46.929999999999993
    51   1      1.8049999999999997      46.929999999999993      30.684999999999999
    52   1      1.8049999999999997      46.929999999999993      34.295000000000002
    53   1      1.8049999999999997      48.734999999999992      32.490000000000002
    54   1      1.8049999999999997      46.929999999999993      37.905000000000001
    55   1      1.8049999999999997      48.734999999999992      36.100000000000001
    56   1      1.8049999999999997      46.929999999999993      41.514999999999993
    57   1      1.8049999999999997      48.734999999999992      39.710000000000001
    58   1      1.8049999999999997      46.929999999999993      45.124999999999993
    59   1      1.8049999999999997      48.734999999999992      43.319999999999993
    60   1      1.8049999999999997      46.929999999999993      48.734999999999992
    61   1      1.8049999999999997      48.734999999999992      46.929999999999993
    62   1      5.4149999999999991                  12.635                   14.44
    63   1      5.4149999999999991                  12.635      18.050000000000001
    64   1      5.4149999999999991                  12.635      21.659999999999997
    65   1      5.4149999999999991                  12.635                   25.27
    66   1      5.4149999999999991                  12.635      28.879999999999999
    67   1      5.4149999999999991                  12.635      32.490000000000002
    68   1      5.4149999999999991                  12.635      36.100000000000001
    69   1      5.4149999999999991                  12.635      39.710000000000001
    70   1      5.4149999999999991                  12.635      43.319999999999993
    71   1      5.4149999999999991                  12.635      46.929999999999993
    72   1      5.4149999999999991                  12.635      50.539999999999999
    73   1      5.4149999999999991                  12.635      54.149999999999999
    74   1      5.4149999999999991                  12.635      57.759999999999998
    75   1      5.4149999999999991                  12.635      61.369999999999997
    76   1      5.4149999999999991                  12.635      64.980000000000004
    77   1      5.4149999999999991                   14.44                  12.635
    78   1      5.4149999999999991                   14.44      16.245000000000001
    79   1      5.4149999999999991      16.245000000000001                   14.44
    80   1      5.4149999999999991                   14.44                  19.855
    81   1      5.4149999999999991      16.245000000000001      18.050000000000001
    82   1      5.4149999999999991                   14.44      23.464999999999996
    83   1      5.4149999999999991      16.245000000000001      21.659999999999997
    84   1      5.4149999999999991                   14.44      27.074999999999999
    85   1      5.4149999999999991      16.245000000000001                   25.27
    86   1      5.4149999999999991                   14.44      30.684999999999999
    87   1      5.4149999999999991      16.245000000000001      28.879999999999999
    88   1      5.4149999999999991                   14.44      34.295000000000002
    89   1      5.4149999999999991      16.245000000000001      32.490000000000002
    90   1      5.4149999999999991                   14.44      37.905000000000001
    91   1      5.4149999999999991      16.245000000000001      36.100000000000001
    92   1      5.4149999999999991                   14.44      41.514999999999993
    93   1      5.4149999999999991      16.245000000000001      39.710000000000001
    94   1      5.4149999999999991                   14.44      45.124999999999993
    95   1      5.4149999999999991      16.245000000000001      43.319999999999993
    96   1      5.4149999999999991                   14.44      48.734999999999992
    97   1      5.4149999999999991      16.245000000000001      46.929999999999993
    98   1      5.4149999999999991                   14.44      52.344999999999999
    99   1      5.4149999999999991      16.245000000000001      50.539999999999999
   100   1      5.4149999999999991                   14.44      55.954999999999998
   101   1      5.4149999999999991      16.245000000000001      54.149999999999999
   102   1      5.4149999999999991                   14.44      59.564999999999998
   103   1      5.4149999999999991      16.245000000000001      57.759999999999998
   104   1      5.4149999999999991                   14.44      63.175000000000004
   105   1      5.4149999999999991      16.245000000000001      61.369999999999997
   106   1      5.4149999999999991                   14.44      66.785000000000011
   107   1      5.4149999999999991      16.245000000000001      64.980000000000004
   108   1      5.4149999999999991      18.050000000000001                  12.635
   109   1      5.4149999999999991      18.050000000000001      16.245000000000001
   110   1      5.4149999999999991                  19.855                   14.44
   111   1      5.4149999999999991      18.050000000000001                  19.855
   112   1      5.4149999999999991                  19.855      18.050000000000001
   113   1      5.4149999999999991      18.050000000000001      23.464999999999996
   114   1      5.4149999999999991                  19.855      21.659999999999997
   115   1      5.4149999999999991      18.050000000000001      27.074999999999999
   116   1      5.4149999999999991                  19.855                   25.27
   117   1      5.4149999999999991      18.050000000000001      30.684999999999999
   118   1      5.4149999999999991                  19.855      28.879999999999999
   119   1      5.4149999999999991      18.050000000000001      34.295000000000002
   120   1      5.4149999999999991                  19.855      32.490000000000002
   121   1      5.4149999999999991      18.050000000000001      37.905000000000001
   122   1      5.4149999999999991                  19.855      36.100000000000001
   123   1      5.4149999999999991      18.050000000000001      41.514999999999993
   124   1      5.4149999999999991                  19.855      39.710000000000001
   125   1      5.4149999999999991      18.050000000000001      45.124999999999993
   126   1      5.4149999999999991                  19.855      43.319999999999993
   127   1      5.4149999999999991      18.050000000000001      48.734999999999992
   128   1      5.4149999999999991                  19.855      46.929999999999993
   129   1      5.4149999999999991      18.050000000000001      52.344999999999999
   130   1      5.4149999999999991                  19.855      50.539999999999999
   131   1      5.4149999999999991      18.050000000000001      55.954999999999998
   132   1      5.4149999999999991                  19.855      54.149999999999999
   133   1      5.4149999999999991      18.050000000000001      59.564999999999998
   134   1      5.4149999999999991                  19.855      57.759999999999998
   135   1      5.4149999999999991      18.050000000000001      63.175000000000004
   136   1      5.4149999999999991                  19.855      61.369999999999997
   137   1      5.4149999999999991      18.050000000000001      66.785000000000011
   138   1      5.4149999999999991                  19.855      64.980000000000004
   139   1      5.4149999999999991      21.659999999999997                  12.635
   140   1      5.4149999999999991      21.659999999999997      16.245000000000001
   141   1      5.4149999999999991      23.464999999999996                   14.44
   142   1      5.4149999999999991      21.659999999999997                  19.855
   143   1      5.4149999999999991      23.464999999999996      18.050000000000001
   144   1      3.6099999999999994      21.659999999999997      21.659999999999997
   145   1      3.6099999999999994      23.464999999999996      23.464999999999996
   146   1      5.4149999999999991      21.659999999999997      23.464999999999996
   147   1      5.4149999999999991      23.464999999999996      21.659999999999997
   148   1      3.6099999999999994      21.659999999999997                   25.27
   149   1      3.6099999999999994      23.464999999999996      27.074999999999999
   150   1      5.4149999999999991      21.659999999999997      27.074999999999999
   151   1      5.4149999999999991      23.464999999999996                   25.27
   152   1      3.6099999999999994      21.659999999999997      28.879999999999999
   153   1      3.6099999999999994      23.464999999999996      30.684999999999999
   154   1      5.4149999999999991      21.659999999999997      30.684999999999999
   155   1      5.4149999999999991      23.464999999999996      28.879999999999999
   156   1      3.6099999999999994      21.659999999999997      32.490000000000002
   157   1      3.6099999999999994      23.464999999999996      34.295000000000002
   158   1      5.4149999999999991      21.659999999999997      34.295000000000002
   159   1      5.4149999999999991      23.464999999999996      32.490000000000002
   160   1      3.6099999999999994      21.659999999999997      36.100000000000001
   161   1      3.6099999999999994      23.464999999999996      37.905000000000001
   162   1      5.4149999999999991      21.659999999999997      37.905000000000001
   163   1      5.4149999999999991      23.464999999999996      36.100000000000001
   164   1      3.6099999999999994      21.659999999999997      39.710000000000001
   165   1      3.6099999999999994      23.464999999999996      41.514999999999993
   166   1      5.4149999999999991      21.659999999999997      41.514999999999993
   167   1      5.4149999999999991      23.464999999999996      39.710000000000001
   168   1      3.6099999999999994      21.659999999999997      43.319999999999993
   169   1      3.6099999999999994      23.464999999999996      45.124999999999993
   170   1      5.4149999999999991      21.659999999999997      45.124999999999993
   171   1      5.4149999999999991      23.464999999999996      43.319999999999993
   172   1      3.6099999999999994      21.659999999999997      46.929999999999993
   173   1      3.6099999999999994      23.464999999999996      48.734999999999992
   174   1      5.4149999999999991      21.659999999999997      48.734999999999992
   175   1      5.4149999999999991      23.464999999999996      46.929999999999993
   176   1      3.6099999999999994      21.659999999999997      50.539999999999999
   177   1      3.6099999999999994      23.464999999999996      52.344999999999999
   178   1      5.4149999999999991      21.659999999999997      52.344999999999999
   179   1      5.4149999999999991      23.464999999999996      50.539999999999999
   180   1      3.6099999999999994      21.659999999999997      54.149999999999999
   181   1      3.6099999999999994      23.464999999999996      55.954999999999998
   182   1      5.4149999999999991      21.659999999999997      55.954999999999998
   183   1      5.4149999999999991      23.464999999999996      54.149999999999999
   184   1      3.6099999999999994      21.659999999999997      57.759999999999998
   185   1      5.4149999999999991      21.659999999999997      59.564999999999998
   186   1      5.4149999999999991      23.464999999999996      57.759999999999998
   187   1      5.4149999999999991      21.659999999999997      63.175000000000004
   188   1      5.4149999999999991      23.464999999999996      61.369999999999997
   189   1      5.4149999999999991      21.659999999999997      66.785000000000011
   190   1      5.4149999999999991      23.464999999999996      64.980000000000004
   191   1      5.4149999999999991                   25.27                  12.635
   192   1      5.4149999999999991                   25.27      16.245000000000001
   193   1      5.4149999999999991      27.074999999999999                   14.44
   194   1      5.4149999999999991                   25.27                  19.855
   195   1      5.4149999999999991      27.074999999999999      18.050000000000001
   196   1      3.6099999999999994                   25.27      21.659999999999997
   197   1      3.6099999999999994      27.074999999999999      23.464999999999996
   198   1      5.4149999999999991                   25.27      23.464999999999996
   199   1      5.4149999999999991      27.074999999999999      21.659999999999997
   200   1      3.6099999999999994                   25.27                   25.27
   201   1      3.6099999999999994      27.074999999999999      27.074999999999999
   202   1      5.4149999999999991                   25.27      27.074999999999999
   203   1      5.4149999999999991      27.074999999999999                   25.27
   204   1      3.6099999999999994                   25.27      28.879999999999999
   205   1      3.6099999999999994      27.074999999999999      30.684999999999999
   206   1      5.4149999999999991                   25.27      30.684999999999999
   207   1      5.4149999999999991      27.074999999999999      28.879999999999999
   208   1      3.6099999999999994                   25.27      32.490000000000002
   209   1      3.6099999999999994      27.074999999999999      34.295000000000002
   210   1      5.4149999999999991                   25.27      34.295000000000002
   211   1      5.4149999999999991      27.074999999999999      32.490000000000002
   212   1      3.6099999999999994                   25.27      36.100000000000001
   213   1      3.6099999999999994      27.074999999999999      37.905000000000001
   214   1      5.4149999999999991                   25.27      37.905000000000001
   215   1      5.4149999999999991      27.074999999999999      36.100000000000001
   216   1      3.6099999999999994                   25.27      39.710000000000001
   217   1      3.6099999999999994      27.074999999999999      41.514999999999993
   218   1      5.4149999999999991                   25.27      41.514999999999993
   219   1      5.4149999999999991      27.074999999999999      39.710000000000001
   220   1      3.6099999999999994                   25.27      43.319999999999993
   221   1      3.6099999999999994      27.074999999999999      45.124999999999993
   222   1      5.4149999999999991                   25.27      45.124999999999993
   223   1      5.4149999999999991      27.074999999999999      43.319999999999993
   224   1      3.6099999999999994                   25.27      46.929999999999993
   225   1      3.6099999999999994      27.074999999999999      48.734999999999992
   226   1      5.4149999999999991                   25.27      48.734999999999992
   227   1      5.4149999999999991      27.074999999999999      46.929999999999993
   228   1      3.6099999999999994                   25.27      50.539999999999999
   229   1      3.6099999999999994      27.074999999999999      52.344999999999999
   230   1      5.4149999999999991                   25.27      52.344999999999999
   231   1      5.4149999999999991      27.074999999999999      50.539999999999999
   232   1      3.6099999999999994                   25.27      54.149999999999999
   233   1      3.6099999999999994      27.074999999999999      55.954999999999998
   234   1      5.4149999999999991                   25.27      55.954999999999998
   235   1      5.4149999999999991      27.074999999999999      54.149999999999999
   236   1      3.6099999999999994                   25.27      57.759999999999998
   237   1      5.4149999999999991                   25.27      59.564999999999998
   238   1      5.4149999999999991      27.074999999999999      57.759999999999998
   239   1      5.4149999999999991                   25.27      63.175000000000004
   240   1      5.4149999999999991      27.074999999999999      61.369999999999997
   241   1      5.4149999999999991                   25.27      66.785000000000011
   242   1      5.4149999999999991      27.074999999999999      64.980000000000004
   243   1      5.4149999999999991      28.879999999999999                  12.635
   244   1      5.4149999999999991      28.879999999999999      16.245000000000001
   245   1      5.4149999999999991      30.684999999999999                   14.44
   246   1      5.4149999999999991      28.879999999999999                  19.855
   247   1      5.4149999999999991      30.684999999999999      18.050000000000001
   248   1      3.6099999999999994      28.879999999999999      21.659999999999997
   249   1      3.6099999999999994      30.684999999999999      23.464999999999996
   250   1      5.4149999999999991      28.879999999999999      23.464999999999996
   251   1      5.4149999999999991      30.684999999999999      21.659999999999997
   252   1      3.6099999999999994      28.879999999999999                   25.27
   253   1      3.6099999999999994      30.684999999999999      27.074999999999999
   254   1      5.4149999999999991      28.879999999999999      27.074999999999999
   255   1      5.4149999999999991      30.684999999999999                   25.27
   256   1      3.6099999999999994      28.879999999999999      28.879999999999999
   257   1      3.6099999999999994      30.684999999999999      30.684999999999999
   258   1      5.4149999999999991      28.879999999999999      30.684999999999999
   259   1      5.4149999999999991      30.684999999999999      28.879999999999999
   260   1      3.6099999999999994      28.879999999999999      32.490000000000002
   261   1      3.6099999999999994      30.684999999999999      34.295000000000002
   262   1      5.4149999999999991      28.879999999999999      34.295000000000002
   263   1      5.4149999999999991      30.684999999999999      32.490000000000002
   264   1      3.6099999999999994      28.879999999999999      36.100000000000001
   265   1      3.6099999999999994      30.684999999999999      37.905000000000001
   266   1      5.4149999999999991      28.879999999999999      37.905000000000001
   267   1      5.4149999999999991      30.684999999999999      36.100000000000001
   268   1      3.6099999999999994      28.879999999999999      39.710000000000001
   269   1      3.6099999999999994      30.684999999999999      41.514999999999993
   270   1      5.4149999999999991      28.879999999999999      41.514999999999993
   271   1      5.4149999999999991      30.684999999999999      39.710000000000001
   272   1      3.6099999999999994      28.879999999999999      43.319999999999993
   273   1      3.6099999999999994      30.684999999999999      45.124999999999993
   274   1      5.4149999999999991      28.879999999999999      45.124999999999993
   275   1      5.4149999999999991      30.684999999999999      43.319999999999993
   276   1      3.6099999999999994      28.879999999999999      46.929999999999993
   277   1      3.6099999999999994      30.684999999999999      48.734999999999992
   278   1      5.4149999999999991      28.879999999999999      48.734999999999992
   279   1      5.4149999999999991      30.684999999999999      46.929999999999993
   280   1      3.6099999999999994      28.879999999999999      50.539999999999999
   281   1      3.6099999999999994      30.684999999999999      52.344999999999999
   282   1      5.4149999999999991      28.879999999999999      52.344999999999999
   283   1      5.4149999999999991      30.684999999999999      50.539999999999999
   284   1      3.6099999999999994      28.879999999999999      54.149999999999999
   285   1      3.6099999999999994      30.684999999999999      55.954999999999998
   286   1      5.4149999999999991      28.879999999999999      55.954999999999998
   287   1      5.4149999999999991      30.684999999999999      54.149999999999999
   288   1      3.6099999999999994      28.879999999999999      57.759999999999998
   289   1      5.4149999999999991      28.879999999999999      59.564999999999998
   290   1      5.4149999999999991      30.684999999999999      57.759999999999998
   291   1      5.4149999999999991      28.879999999999999      63.175000000000004
   292   1      5.4149999999999991      30.684999999999999      61.369999999999997
   293   1      5.4149999999999991      28.879999999999999      66.785000000000011
   294   1      5.4149999999999991      30.684999999999999      64.980000000000004
   295   1      5.4149999999999991      32.490000000000002                  12.635
   296   1      5.4149999999999991      32.490000000000002      16.245000000000001
   297   1      5.4149999999999991      34.295000000000002                   14.44
   298   1      5.4149999999999991      32.490000000000002                  19.855
   299   1      5.4149999999999991      34.295000000000002      18.050000000000001
   300   1      3.6099999999999994      32.490000000000002      21.659999999999997
   301   1      3.6099999999999994      34.295000000000002      23.464999999999996
   302   1      5.4149999999999991      32.490000000000002      23.464999999999996
   303   1      5.4149999999999991      34.295000000000002      21.659999999999997
   304   1      3.6099999999999994      32.490000000000002                   25.27
   305   1      3.6099999999999994      34.295000000000002      27.074999999999999
   306   1      5.4149999999999991      32.490000000000002      27.074999999999999
   307   1      5.4149999999999991      34.295000000000002                   25.27
   308   1      3.6099999999999994      32.490000000000002      28.879999999999999
   309   1      3.6099999999999994      34.295000000000002      30.684999999999999
   310   1      5.4149999999999991      32.490000000000002      30.684999999999999
   311   1      5.4149999999999991      34.295000000000002      28.879999999999999
   312   1      3.6099999999999994      32.490000000000002      32.490000000000002
   313   1      3.6099999999999994      34.295000000000002      34.295000000000002
   314   1      5.4149999999999991      32.490000000000002      34.295000000000002
   315   1      5.4149999999999991      34.295000000000002      32.490000000000002
   316   1      3.6099999999999994      32.490000000000002      36.100000000000001
   317   1      3.6099999999999994      34.295000000000002      37.905000000000001
   318   1      5.4149999999999991      32.490000000000002      37.905000000000001
   319   1      5.4149999999999991      34.295000000000002      36.100000000000001
   320   1      3.6099999999999994      32.490000000000002      39.710000000000001
   321   1      3.6099999999999994      34.295000000000002      41.514999999999993
   322   1      5.4149999999999991      32.490000000000002      41.514999999999993
   323   1      5.4149999999999991      34.295000000000002      39.710000000000001
   324   1      3.6099999999999994      32.490000000000002      43.319999999999993
   325   1      3.6099999999999994      34.295000000000002      45.124999999999993
   326   1      5.4149999999999991      32.490000000000002      45.124999999999993
   327   1      5.4149999999999991      34.295000000000002      43.319999999999993
   328   1      3.6099999999999994      32.490000000000002      46.929999999999993
   329   1      3.6099999999999994      34.295000000000002      48.734999999999992
   330   1      5.4149999999999991      32.490000000000002      48.734999999999992
   331   1      5.4149999999999991      34.295000000000002      46.929999999999993
   332   1      3.6099999999999994      32.490000000000002      50.539999999999999
   333   1      3.6099999999999994      34.295000000000002      52.344999999999999
   334   1      5.4149999999999991      32.490000000000002      52.344999999999999
   335   1      5.4149999999999991      34.295000000000002      50.539999999999999
   336   1      3.6099999999999994      32.490000000000002      54.149999999999999
   337   1      3.6099999999999994      34.295000000000002      55.954999999999998
   338   1      5.4149999999999991      32.490000000000002      55.954999999999998
   339   1      5.4149999999999991      34.295000000000002      54.149999999999999
   340   1      3.6099999999999994      32.490000000000002      57.759999999999998
   341   1      5.4149999999999991      32.490000000000002      59.564999999999998
   342   1      5.4149999999999991      34.295000000000002      57.759999999999998
   343   1      5.4149999999999991      32.490000000000002      63.175000000000004
   344   1      5.4149999999999991      34.295000000000002      61.369999999999997
   345   1      5.4149999999999991      32.490000000000002      66.785000000000011
   346   1      5.4149999999999991      34.295000000000002      64.980000000000004
   347   1      5.4149999999999991      36.100000000000001                  12.635
   348   1      5.4149999999999991      36.100000000000001      16.245000000000001
   349   1      5.4149999999999991      37.905000000000001                   14.44
   350   1      5.4149999999999991      36.100000000000001                  19.855
   351   1      5.4149999999999991      37.905000000000001      18.050000000000001
   352   1      3.6099999999999994      36.100000000000001      21.659999999999997
   353   1      3.6099999999999994      37.905000000000001      23.464999999999996
   354   1      5.4149999999999991      36.100000000000001      23.464999999999996
   355   1      5.4149999999999991      37.905000000000001      21.659999999999997
   356   1      3.6099999999999994      36.100000000000001                   25.27
   357   1      3.6099999999999994      37.905000000000001      27.074999999999999
   358   1      5.4149999999999991      36.100000000000001      27.074999999999999