model_files/Ni/Ni_30000/Ni_540/data.Ni_540_fcc_29765 (written by ASE) 

29765 	 atoms 
1  atom types
0.0                      98  xlo xhi
0.0                      98  ylo yhi
0.0                      98  zlo zhi


Atoms 

     1   1  7.1054273576010011e-15      47.519999999999996      47.519999999999996
     2   1      1.7600000000000051      45.759999999999998      47.519999999999996
     3   1      1.7600000000000051      47.519999999999996      45.759999999999998
     4   1  7.1054273576010011e-15      47.519999999999996      51.039999999999992
     5   1      1.7600000000000051      45.759999999999998      51.039999999999992
     6   1      1.7600000000000051      47.519999999999996      49.279999999999994
     7   1      1.7600000000000051      47.519999999999996      52.800000000000004
     8   1  7.1054273576010011e-15      51.039999999999992      47.519999999999996
     9   1      1.7600000000000051      49.279999999999994      47.519999999999996
    10   1      1.7600000000000051      51.039999999999992      45.759999999999998
    11   1  7.1054273576010011e-15      49.279999999999994      49.279999999999994
    12   1  7.1054273576010011e-15      51.039999999999992      51.039999999999992
    13   1      1.7600000000000051      49.279999999999994      51.039999999999992
    14   1      1.7600000000000051      51.039999999999992      49.279999999999994
    15   1      1.7600000000000051      51.039999999999992      52.800000000000004
    16   1      1.7600000000000051      52.800000000000004      47.519999999999996
    17   1      1.7600000000000051      52.800000000000004      51.039999999999992
    18   1      3.5200000000000027      43.999999999999993      43.999999999999993
    19   1      5.2800000000000011      42.240000000000002      43.999999999999993
    20   1      5.2800000000000011      43.999999999999993      42.240000000000002
    21   1      3.5200000000000027      43.999999999999993      47.519999999999996
    22   1      5.2800000000000011      42.240000000000002      47.519999999999996
    23   1      5.2800000000000011      43.999999999999993      45.759999999999998
    24   1      3.5200000000000027      43.999999999999993      51.039999999999992
    25   1      5.2800000000000011      42.240000000000002      51.039999999999992
    26   1      5.2800000000000011      43.999999999999993      49.279999999999994
    27   1      3.5200000000000027      43.999999999999993      54.560000000000002
    28   1      5.2800000000000011      42.240000000000002      54.560000000000002
    29   1      5.2800000000000011      43.999999999999993      52.800000000000004
    30   1      5.2800000000000011      43.999999999999993                   56.32
    31   1      3.5200000000000027      47.519999999999996      43.999999999999993
    32   1      5.2800000000000011      45.759999999999998      43.999999999999993
    33   1      5.2800000000000011      47.519999999999996      42.240000000000002
    34   1      3.5200000000000027      45.759999999999998      45.759999999999998
    35   1      3.5200000000000027      47.519999999999996      47.519999999999996
    36   1      5.2800000000000011      45.759999999999998      47.519999999999996
    37   1      5.2800000000000011      47.519999999999996      45.759999999999998
    38   1      3.5200000000000027      45.759999999999998      49.279999999999994
    39   1      3.5200000000000027      47.519999999999996      51.039999999999992
    40   1      5.2800000000000011      45.759999999999998      51.039999999999992
    41   1      5.2800000000000011      47.519999999999996      49.279999999999994
    42   1      3.5200000000000027      45.759999999999998      52.800000000000004
    43   1      3.5200000000000027      47.519999999999996      54.560000000000002
    44   1      5.2800000000000011      45.759999999999998      54.560000000000002
    45   1      5.2800000000000011      47.519999999999996      52.800000000000004
    46   1      5.2800000000000011      47.519999999999996                   56.32
    47   1      3.5200000000000027      51.039999999999992      43.999999999999993
    48   1      5.2800000000000011      49.279999999999994      43.999999999999993
    49   1      5.2800000000000011      51.039999999999992      42.240000000000002
    50   1      3.5200000000000027      49.279999999999994      45.759999999999998
    51   1      3.5200000000000027      51.039999999999992      47.519999999999996
    52   1      5.2800000000000011      49.279999999999994      47.519999999999996
    53   1      5.2800000000000011      51.039999999999992      45.759999999999998
    54   1      3.5200000000000027      49.279999999999994      49.279999999999994
    55   1      3.5200000000000027      51.039999999999992      51.039999999999992
    56   1      5.2800000000000011      49.279999999999994      51.039999999999992
    57   1      5.2800000000000011      51.039999999999992      49.279999999999994
    58   1      3.5200000000000027      49.279999999999994      52.800000000000004
    59   1      3.5200000000000027      51.039999999999992      54.560000000000002
    60   1      5.2800000000000011      49.279999999999994      54.560000000000002
    61   1      5.2800000000000011      51.039999999999992      52.800000000000004
    62   1      5.2800000000000011      51.039999999999992                   56.32
    63   1      3.5200000000000027      54.560000000000002      43.999999999999993
    64   1      5.2800000000000011      52.800000000000004      43.999999999999993
    65   1      5.2800000000000011      54.560000000000002      42.240000000000002
    66   1      3.5200000000000027      52.800000000000004      45.759999999999998
    67   1      3.5200000000000027      54.560000000000002      47.519999999999996
    68   1      5.2800000000000011      52.800000000000004      47.519999999999996
    69   1      5.2800000000000011      54.560000000000002      45.759999999999998
    70   1      3.5200000000000027      52.800000000000004      49.279999999999994
    71   1      3.5200000000000027      54.560000000000002      51.039999999999992
    72   1      5.2800000000000011      52.800000000000004      51.039999999999992
    73   1      5.2800000000000011      54.560000000000002      49.279999999999994
    74   1      3.5200000000000027      52.800000000000004      52.800000000000004
    75   1      3.5200000000000027      54.560000000000002      54.560000000000002
    76   1      5.2800000000000011      52.800000000000004      54.560000000000002
    77   1      5.2800000000000011      54.560000000000002      52.800000000000004
    78   1      5.2800000000000011      54.560000000000002                   56.32
    79   1      5.2800000000000011                   56.32      43.999999999999993
    80   1      5.2800000000000011                   56.32      47.519999999999996
    81   1      5.2800000000000011                   56.32      51.039999999999992
    82   1      5.2800000000000011                   56.32      54.560000000000002
    83   1      8.8000000000000043      36.959999999999994      38.719999999999999
    84   1      8.8000000000000043      36.959999999999994      42.240000000000002
    85   1      8.8000000000000043      36.959999999999994      45.759999999999998
    86   1      8.8000000000000043      36.959999999999994      49.279999999999994
    87   1      8.8000000000000043      36.959999999999994      52.800000000000004
    88   1      8.8000000000000043      36.959999999999994                   56.32
    89   1      8.8000000000000043      36.959999999999994      59.839999999999996
    90   1      8.8000000000000043      38.719999999999999      36.959999999999994
    91   1      7.0400000000000054      38.719999999999999      38.719999999999999
    92   1      7.0400000000000054      40.480000000000004      40.480000000000004
    93   1      8.8000000000000043      38.719999999999999      40.480000000000004
    94   1      8.8000000000000043      40.480000000000004      38.719999999999999
    95   1      7.0400000000000054      38.719999999999999      42.240000000000002
    96   1      7.0400000000000054      40.480000000000004      43.999999999999993
    97   1      8.8000000000000043      38.719999999999999      43.999999999999993
    98   1      8.8000000000000043      40.480000000000004      42.240000000000002
    99   1      7.0400000000000054      38.719999999999999      45.759999999999998
   100   1      7.0400000000000054      40.480000000000004      47.519999999999996
   101   1      8.8000000000000043      38.719999999999999      47.519999999999996
   102   1      8.8000000000000043      40.480000000000004      45.759999999999998
   103   1      7.0400000000000054      38.719999999999999      49.279999999999994
   104   1      7.0400000000000054      40.480000000000004      51.039999999999992
   105   1      8.8000000000000043      38.719999999999999      51.039999999999992
   106   1      8.8000000000000043      40.480000000000004      49.279999999999994
   107   1      7.0400000000000054      38.719999999999999      52.800000000000004
   108   1      7.0400000000000054      40.480000000000004      54.560000000000002
   109   1      8.8000000000000043      38.719999999999999      54.560000000000002
   110   1      8.8000000000000043      40.480000000000004      52.800000000000004
   111   1      7.0400000000000054      38.719999999999999                   56.32
   112   1      7.0400000000000054      40.480000000000004      58.079999999999998
   113   1      8.8000000000000043      38.719999999999999      58.079999999999998
   114   1      8.8000000000000043      40.480000000000004                   56.32
   115   1      7.0400000000000054      38.719999999999999      59.839999999999996
   116   1      8.8000000000000043      38.719999999999999      61.600000000000001
   117   1      8.8000000000000043      40.480000000000004      59.839999999999996
   118   1      8.8000000000000043      42.240000000000002      36.959999999999994
   119   1      7.0400000000000054      42.240000000000002      38.719999999999999
   120   1      7.0400000000000054      43.999999999999993      40.480000000000004
   121   1      8.8000000000000043      42.240000000000002      40.480000000000004
   122   1      8.8000000000000043      43.999999999999993      38.719999999999999
   123   1      7.0400000000000054      42.240000000000002      42.240000000000002
   124   1      7.0400000000000054      43.999999999999993      43.999999999999993
   125   1      8.8000000000000043      42.240000000000002      43.999999999999993
   126   1      8.8000000000000043      43.999999999999993      42.240000000000002
   127   1      7.0400000000000054      42.240000000000002      45.759999999999998
   128   1      7.0400000000000054      43.999999999999993      47.519999999999996
   129   1      8.8000000000000043      42.240000000000002      47.519999999999996
   130   1      8.8000000000000043      43.999999999999993      45.759999999999998
   131   1      7.0400000000000054      42.240000000000002      49.279999999999994
   132   1      7.0400000000000054      43.999999999999993      51.039999999999992
   133   1      8.8000000000000043      42.240000000000002      51.039999999999992
   134   1      8.8000000000000043      43.999999999999993      49.279999999999994
   135   1      7.0400000000000054      42.240000000000002      52.800000000000004
   136   1      7.0400000000000054      43.999999999999993      54.560000000000002
   137   1      8.8000000000000043      42.240000000000002      54.560000000000002
   138   1      8.8000000000000043      43.999999999999993      52.800000000000004
   139   1      7.0400000000000054      42.240000000000002                   56.32
   140   1      7.0400000000000054      43.999999999999993      58.079999999999998
   141   1      8.8000000000000043      42.240000000000002      58.079999999999998
   142   1      8.8000000000000043      43.999999999999993                   56.32
   143   1      7.0400000000000054      42.240000000000002      59.839999999999996
   144   1      8.8000000000000043      42.240000000000002      61.600000000000001
   145   1      8.8000000000000043      43.999999999999993      59.839999999999996
   146   1      8.8000000000000043      45.759999999999998      36.959999999999994
   147   1      7.0400000000000054      45.759999999999998      38.719999999999999
   148   1      7.0400000000000054      47.519999999999996      40.480000000000004
   149   1      8.8000000000000043      45.759999999999998      40.480000000000004
   150   1      8.8000000000000043      47.519999999999996      38.719999999999999
   151   1      7.0400000000000054      45.759999999999998      42.240000000000002
   152   1      7.0400000000000054      47.519999999999996      43.999999999999993
   153   1      8.8000000000000043      45.759999999999998      43.999999999999993
   154   1      8.8000000000000043      47.519999999999996      42.240000000000002
   155   1      7.0400000000000054      45.759999999999998      45.759999999999998
   156   1      7.0400000000000054      47.519999999999996      47.519999999999996
   157   1      8.8000000000000043      45.759999999999998      47.519999999999996
   158   1      8.8000000000000043      47.519999999999996      45.759999999999998
   159   1      7.0400000000000054      45.759999999999998      49.279999999999994
   160   1      7.0400000000000054      47.519999999999996      51.039999999999992
   161   1      8.8000000000000043      45.759999999999998      51.039999999999992
   162   1      8.8000000000000043      47.519999999999996      49.279999999999994
   163   1      7.0400000000000054      45.759999999999998      52.800000000000004
   164   1      7.0400000000000054      47.519999999999996      54.560000000000002
   165   1      8.8000000000000043      45.759999999999998      54.560000000000002
   166   1      8.8000000000000043      47.519999999999996      52.800000000000004
   167   1      7.0400000000000054      45.759999999999998                   56.32
   168   1      7.0400000000000054      47.519999999999996      58.079999999999998
   169   1      8.8000000000000043      45.759999999999998      58.079999999999998
   170   1      8.8000000000000043      47.519999999999996                   56.32
   171   1      7.0400000000000054      45.759999999999998      59.839999999999996
   172   1      8.8000000000000043      45.759999999999998      61.600000000000001
   173   1      8.8000000000000043      47.519999999999996      59.839999999999996
   174   1      8.8000000000000043      49.279999999999994      36.959999999999994
   175   1      7.0400000000000054      49.279999999999994      38.719999999999999
   176   1      7.0400000000000054      51.039999999999992      40.480000000000004
   177   1      8.8000000000000043      49.279999999999994      40.480000000000004
   178   1      8.8000000000000043      51.039999999999992      38.719999999999999
   179   1      7.0400000000000054      49.279999999999994      42.240000000000002
   180   1      7.0400000000000054      51.039999999999992      43.999999999999993
   181   1      8.8000000000000043      49.279999999999994      43.999999999999993
   182   1      8.8000000000000043      51.039999999999992      42.240000000000002
   183   1      7.0400000000000054      49.279999999999994      45.759999999999998
   184   1      7.0400000000000054      51.039999999999992      47.519999999999996
   185   1      8.8000000000000043      49.279999999999994      47.519999999999996
   186   1      8.8000000000000043      51.039999999999992      45.759999999999998
   187   1      7.0400000000000054      49.279999999999994      49.279999999999994
   188   1      7.0400000000000054      51.039999999999992      51.039999999999992
   189   1      8.8000000000000043      49.279999999999994      51.039999999999992
   190   1      8.8000000000000043      51.039999999999992      49.279999999999994
   191   1      7.0400000000000054      49.279999999999994      52.800000000000004
   192   1      7.0400000000000054      51.039999999999992      54.560000000000002
   193   1      8.8000000000000043      49.279999999999994      54.560000000000002
   194   1      8.8000000000000043      51.039999999999992      52.800000000000004
   195   1      7.0400000000000054      49.279999999999994                   56.32
   196   1      7.0400000000000054      51.039999999999992      58.079999999999998
   197   1      8.8000000000000043      49.279999999999994      58.079999999999998
   198   1      8.8000000000000043      51.039999999999992                   56.32
   199   1      7.0400000000000054      49.279999999999994      59.839999999999996
   200   1      8.8000000000000043      49.279999999999994      61.600000000000001
   201   1      8.8000000000000043      51.039999999999992      59.839999999999996
   202   1      8.8000000000000043      52.800000000000004      36.959999999999994
   203   1      7.0400000000000054      52.800000000000004      38.719999999999999
   204   1      7.0400000000000054      54.560000000000002      40.480000000000004
   205   1      8.8000000000000043      52.800000000000004      40.480000000000004
   206   1      8.8000000000000043      54.560000000000002      38.719999999999999
   207   1      7.0400000000000054      52.800000000000004      42.240000000000002
   208   1      7.0400000000000054      54.560000000000002      43.999999999999993
   209   1      8.8000000000000043      52.800000000000004      43.999999999999993
   210   1      8.8000000000000043      54.560000000000002      42.240000000000002
   211   1      7.0400000000000054      52.800000000000004      45.759999999999998
   212   1      7.0400000000000054      54.560000000000002      47.519999999999996
   213   1      8.8000000000000043      52.800000000000004      47.519999999999996
   214   1      8.8000000000000043      54.560000000000002      45.759999999999998
   215   1      7.0400000000000054      52.800000000000004      49.279999999999994
   216   1      7.0400000000000054      54.560000000000002      51.039999999999992
   217   1      8.8000000000000043      52.800000000000004      51.039999999999992
   218   1      8.8000000000000043      54.560000000000002      49.279999999999994
   219   1      7.0400000000000054      52.800000000000004      52.800000000000004
   220   1      7.0400000000000054      54.560000000000002      54.560000000000002
   221   1      8.8000000000000043      52.800000000000004      54.560000000000002
   222   1      8.8000000000000043      54.560000000000002      52.800000000000004
   223   1      7.0400000000000054      52.800000000000004                   56.32
   224   1      7.0400000000000054      54.560000000000002      58.079999999999998
   225   1      8.8000000000000043      52.800000000000004      58.079999999999998
   226   1      8.8000000000000043      54.560000000000002                   56.32
   227   1      7.0400000000000054      52.800000000000004      59.839999999999996
   228   1      8.8000000000000043      52.800000000000004      61.600000000000001
   229   1      8.8000000000000043      54.560000000000002      59.839999999999996
   230   1      8.8000000000000043                   56.32      36.959999999999994
   231   1      7.0400000000000054                   56.32      38.719999999999999
   232   1      7.0400000000000054      58.079999999999998      40.480000000000004
   233   1      8.8000000000000043                   56.32      40.480000000000004
   234   1      8.8000000000000043      58.079999999999998      38.719999999999999
   235   1      7.0400000000000054                   56.32      42.240000000000002
   236   1      7.0400000000000054      58.079999999999998      43.999999999999993
   237   1      8.8000000000000043                   56.32      43.999999999999993
   238   1      8.8000000000000043      58.079999999999998      42.240000000000002
   239   1      7.0400000000000054                   56.32      45.759999999999998
   240   1      7.0400000000000054      58.079999999999998      47.519999999999996
   241   1      8.8000000000000043                   56.32      47.519999999999996
   242   1      8.8000000000000043      58.079999999999998      45.759999999999998
   243   1      7.0400000000000054                   56.32      49.279999999999994
   244   1      7.0400000000000054      58.079999999999998      51.039999999999992
   245   1      8.8000000000000043                   56.32      51.039999999999992
   246   1      8.8000000000000043      58.079999999999998      49.279999999999994
   247   1      7.0400000000000054                   56.32      52.800000000000004
   248   1      7.0400000000000054      58.079999999999998      54.560000000000002
   249   1      8.8000000000000043                   56.32      54.560000000000002
   250   1      8.8000000000000043      58.079999999999998      52.800000000000004
   251   1      7.0400000000000054                   56.32                   56.32
   252   1      7.0400000000000054      58.079999999999998      58.079999999999998
   253   1      8.8000000000000043                   56.32      58.079999999999998
   254   1      8.8000000000000043      58.079999999999998                   56.32
   255   1      7.0400000000000054                   56.32      59.839999999999996
   256   1      8.8000000000000043                   56.32      61.600000000000001
   257   1      8.8000000000000043      58.079999999999998      59.839999999999996
   258   1      8.8000000000000043      59.839999999999996      36.959999999999994
   259   1      7.0400000000000054      59.839999999999996      38.719999999999999
   260   1      8.8000000000000043      59.839999999999996      40.480000000000004
   261   1      8.8000000000000043      61.600000000000001      38.719999999999999
   262   1      7.0400000000000054      59.839999999999996      42.240000000000002
   263   1      8.8000000000000043      59.839999999999996      43.999999999999993
   264   1      8.8000000000000043      61.600000000000001      42.240000000000002
   265   1      7.0400000000000054      59.839999999999996      45.759999999999998
   266   1      8.8000000000000043      59.839999999999996      47.519999999999996
   267   1      8.8000000000000043      61.600000000000001      45.759999999999998
   268   1      7.0400000000000054      59.839999999999996      49.279999999999994
   269   1      8.8000000000000043      59.839999999999996      51.039999999999992
   270   1      8.8000000000000043      61.600000000000001      49.279999999999994
   271   1      7.0400000000000054      59.839999999999996      52.800000000000004
   272   1      8.8000000000000043      59.839999999999996      54.560000000000002
   273   1      8.8000000000000043      61.600000000000001      52.800000000000004
   274   1      7.0400000000000054      59.839999999999996                   56.32
   275   1      8.8000000000000043      59.839999999999996      58.079999999999998
   276   1      8.8000000000000043      61.600000000000001                   56.32
   277   1      7.0400000000000054      59.839999999999996      59.839999999999996
   278   1      8.8000000000000043      59.839999999999996      61.600000000000001
   279   1      8.8000000000000043      61.600000000000001      59.839999999999996
   280   1      12.320000000000006      33.440000000000005      35.199999999999996
   281   1      12.320000000000006      33.440000000000005      38.719999999999999
   282   1      12.320000000000006      33.440000000000005      42.240000000000002
   283   1      12.320000000000006      33.440000000000005      45.759999999999998
   284   1      12.320000000000006      33.440000000000005      49.279999999999994
   285   1      12.320000000000006      33.440000000000005      52.800000000000004
   286   1      12.320000000000006      33.440000000000005                   56.32
   287   1      12.320000000000006      33.440000000000005      59.839999999999996
   288   1      12.320000000000006      33.440000000000005      63.359999999999999
   289   1      12.320000000000006      35.199999999999996      33.440000000000005
   290   1      10.560000000000002      35.199999999999996      35.199999999999996
   291   1      10.560000000000002      36.959999999999994      36.959999999999994
   292   1      12.320000000000006      35.199999999999996      36.959999999999994
   293   1      12.320000000000006      36.959999999999994      35.199999999999996
   294   1      10.560000000000002      35.199999999999996      38.719999999999999
   295   1      10.560000000000002      36.959999999999994      40.480000000000004
   296   1      12.320000000000006      35.199999999999996      40.480000000000004
   297   1      12.320000000000006      36.959999999999994      38.719999999999999
   298   1      10.560000000000002      35.199999999999996      42.240000000000002
   299   1      10.560000000000002      36.959999999999994      43.999999999999993
   300   1      12.320000000000006      35.199999999999996      43.999999999999993
   301   1      12.320000000000006      36.959999999999994      42.240000000000002
   302   1      10.560000000000002      35.199999999999996      45.759999999999998
   303   1      10.560000000000002      36.959999999999994      47.519999999999996
   304   1      12.320000000000006      35.199999999999996      47.519999999999996
   305   1      12.320000000000006      36.959999999999994      45.759999999999998
   306   1      10.560000000000002      35.199999999999996      49.279999999999994
   307   1      10.560000000000002      36.959999999999994      51.039999999999992
   308   1      12.320000000000006      35.199999999999996      51.039999999999992
   309   1      12.320000000000006      36.959999999999994      49.279999999999994
   310   1      10.560000000000002      35.199999999999996      52.800000000000004
   311   1      10.560000000000002      36.959999999999994      54.560000000000002
   312   1      12.320000000000006      35.199999999999996      54.560000000000002
   313   1      12.320000000000006      36.959999999999994      52.800000000000004
   314   1      10.560000000000002      35.199999999999996                   56.32
   315   1      10.560000000000002      36.959999999999994      58.079999999999998
   316   1      12.320000000000006      35.199999999999996      58.079999999999998
   317   1      12.320000000000006      36.959999999999994                   56.32
   318   1      10.560000000000002      35.199999999999996      59.839999999999996
   319   1      10.560000000000002      36.959999999999994      61.600000000000001
   320   1      12.320000000000006      35.199999999999996      61.600000000000001
   321   1      12.320000000000006      36.959999999999994      59.839999999999996
   322   1      10.560000000000002      35.199999999999996      63.359999999999999
   323   1      12.320000000000006      35.199999999999996      65.120000000000005
   324   1      12.320000000000006      36.959999999999994      63.359999999999999
   325   1      12.320000000000006      38.719999999999999      33.440000000000005
   326   1      10.560000000000002      38.719999999999999      35.199999999999996
   327   1      10.560000000000002      40.480000000000004      36.959999999999994
   328   1      12.320000000000006      38.719999999999999      36.959999999999994
   329   1      12.320000000000006      40.480000000000004      35.199999999999996
   330   1      10.560000000000002      38.719999999999999      38.719999999999999
   331   1      10.560000000000002      40.480000000000004      40.480000000000004
   332   1      12.320000000000006      38.719999999999999      40.480000000000004
   333   1      12.320000000000006      40.480000000000004      38.719999999999999
   334   1      10.560000000000002      38.719999999999999      42.240000000000002
   335   1      10.560000000000002      40.480000000000004      43.999999999999993
   336   1      12.320000000000006      38.719999999999999      43.999999999999993
   337   1      12.320000000000006      40.480000000000004      42.240000000000002
   338   1      10.560000000000002      38.719999999999999      45.759999999999998
   339   1      10.560000000000002      40.480000000000004      47.519999999999996
   340   1      12.320000000000006      38.719999999999999      47.519999999999996
   341   1      12.320000000000006      40.480000000000004      45.759999999999998
   342   1      10.560000000000002      38.719999999999999      49.279999999999994
   343   1      10.560000000000002      40.480000000000004      51.039999999999992
   344   1      12.320000000000006      38.719999999999999      51.039999999999992
   345   1      12.320000000000006      40.480000000000004      49.279999999999994
   346   1      10.560000000000002      38.719999999999999      52.800000000000004
   347   1      10.560000000000002      40.480000000000004      54.560000000000002
   348   1      12.320000000000006      38.719999999999999      54.560000000000002
   349   1      12.320000000000006      40.480000000000004      52.800000000000004
   350   1      10.560000000000002      38.719999999999999                   56.32
   351   1      10.560000000000002      40.480000000000004      58.079999999999998
   352   1      12.320000000000006      38.719999999999999      58.079999999999998
   353   1      12.320000000000006      40.480000000000004                   56.32
   354   1      10.560000000000002      38.719999999999999      59.839999999999996
   355   1      10.560000000000002      40.480000000000004      61.600000000000001
   356   1      12.320000000000006      38.719999999999999      61.600000000000001
   357   1      12.320000000000006      40.480000000000004      59.839999999999996
   358   1      10.560000000000002      38.719999999999999      63.359999999999999