model_files/PdNi/PdNi_30000/PdNi_322/PdNi_322_fcc_30187_temp.data (written by ASE) 

30187 	 atoms 
2  atom types
0.0                     113  xlo xhi
0.0                     113  ylo yhi
0.0                     113  zlo zhi


Atoms 

     1   1      1.8625000000000045      54.012499999999996      55.875000000000007
     2   1      1.8625000000000045      55.875000000000007      54.012499999999996
     3   1  7.1054273576010019e-15      55.875000000000007      55.875000000000007
     4   1      1.8625000000000045      55.875000000000007      57.737500000000004
     5   1      1.8625000000000045      57.737500000000004      55.875000000000007
     6   1      5.5875000000000057      46.562500000000007      55.875000000000007
     7   1       3.725000000000009      50.287500000000001      54.012499999999996
     8   1      5.5875000000000057      48.425000000000004      54.012499999999996
     9   1      5.5875000000000057      50.287500000000001      52.149999999999999
    10   1       3.725000000000009      48.425000000000004      55.875000000000007
    11   1       3.725000000000009      50.287500000000001      57.737500000000004
    12   1      5.5875000000000057      48.425000000000004      57.737500000000004
    13   1      5.5875000000000057      50.287500000000001      55.875000000000007
    14   1      5.5875000000000057      50.287500000000001      59.600000000000001
    15   1       3.725000000000009      54.012499999999996      50.287500000000001
    16   1      5.5875000000000057      52.149999999999999      50.287500000000001
    17   1      5.5875000000000057      54.012499999999996      48.425000000000004
    18   1       3.725000000000009      52.149999999999999      52.149999999999999
    19   1       3.725000000000009      54.012499999999996      54.012499999999996
    20   1      5.5875000000000057      52.149999999999999      54.012499999999996
    21   1      5.5875000000000057      54.012499999999996      52.149999999999999
    22   1       3.725000000000009      52.149999999999999      55.875000000000007
    23   1       3.725000000000009      54.012499999999996      57.737500000000004
    24   1      5.5875000000000057      52.149999999999999      57.737500000000004
    25   1      5.5875000000000057      54.012499999999996      55.875000000000007
    26   1       3.725000000000009      52.149999999999999      59.600000000000001
    27   1       3.725000000000009      54.012499999999996      61.462499999999999
    28   1      5.5875000000000057      52.149999999999999      61.462499999999999
    29   1      5.5875000000000057      54.012499999999996      59.600000000000001
    30   1      5.5875000000000057      54.012499999999996      63.324999999999996
    31   1      5.5875000000000057      55.875000000000007      46.562500000000007
    32   1       3.725000000000009      55.875000000000007      48.425000000000004
    33   1       3.725000000000009      57.737500000000004      50.287500000000001
    34   1      5.5875000000000057      55.875000000000007      50.287500000000001
    35   1      5.5875000000000057      57.737500000000004      48.425000000000004
    36   1       3.725000000000009      55.875000000000007      52.149999999999999
    37   1       3.725000000000009      57.737500000000004      54.012499999999996
    38   1      5.5875000000000057      55.875000000000007      54.012499999999996
    39   1      5.5875000000000057      57.737500000000004      52.149999999999999
    40   1       3.725000000000009      55.875000000000007      55.875000000000007
    41   1       3.725000000000009      57.737500000000004      57.737500000000004
    42   1      5.5875000000000057      55.875000000000007      57.737500000000004
    43   1      5.5875000000000057      57.737500000000004      55.875000000000007
    44   1       3.725000000000009      55.875000000000007      59.600000000000001
    45   1       3.725000000000009      57.737500000000004      61.462499999999999
    46   1      5.5875000000000057      55.875000000000007      61.462499999999999
    47   1      5.5875000000000057      57.737500000000004      59.600000000000001
    48   1       3.725000000000009      55.875000000000007      63.324999999999996
    49   1      5.5875000000000057      55.875000000000007                 65.1875
    50   1      5.5875000000000057      57.737500000000004      63.324999999999996
    51   1      5.5875000000000057      59.600000000000001      50.287500000000001
    52   1       3.725000000000009      59.600000000000001      52.149999999999999
    53   1       3.725000000000009      61.462499999999999      54.012499999999996
    54   1      5.5875000000000057      59.600000000000001      54.012499999999996
    55   1      5.5875000000000057      61.462499999999999      52.149999999999999
    56   1       3.725000000000009      59.600000000000001      55.875000000000007
    57   1       3.725000000000009      61.462499999999999      57.737500000000004
    58   1      5.5875000000000057      59.600000000000001      57.737500000000004
    59   1      5.5875000000000057      61.462499999999999      55.875000000000007
    60   1       3.725000000000009      59.600000000000001      59.600000000000001
    61   1      5.5875000000000057      59.600000000000001      61.462499999999999
    62   1      5.5875000000000057      61.462499999999999      59.600000000000001
    63   1      5.5875000000000057      63.324999999999996      54.012499999999996
    64   1       3.725000000000009      63.324999999999996      55.875000000000007
    65   1      5.5875000000000057      63.324999999999996      57.737500000000004
    66   1      5.5875000000000057                 65.1875      55.875000000000007
    67   1      9.3125000000000071      42.837500000000006      55.875000000000007
    68   1      7.4500000000000099      46.562500000000007      54.012499999999996
    69   1      9.3125000000000071       44.70000000000001      54.012499999999996
    70   1      9.3125000000000071      46.562500000000007      52.149999999999999
    71   1      7.4500000000000099       44.70000000000001      55.875000000000007
    72   1      7.4500000000000099      46.562500000000007      57.737500000000004
    73   1      9.3125000000000071       44.70000000000001      57.737500000000004
    74   1      9.3125000000000071      46.562500000000007      55.875000000000007
    75   1      9.3125000000000071      46.562500000000007      59.600000000000001
    76   1      7.4500000000000099      50.287500000000001      50.287500000000001
    77   1      9.3125000000000071      48.425000000000004      50.287500000000001
    78   1      9.3125000000000071      50.287500000000001      48.425000000000004
    79   1      7.4500000000000099      48.425000000000004      52.149999999999999
    80   1      7.4500000000000099      50.287500000000001      54.012499999999996
    81   1      9.3125000000000071      48.425000000000004      54.012499999999996
    82   1      9.3125000000000071      50.287500000000001      52.149999999999999
    83   1      7.4500000000000099      48.425000000000004      55.875000000000007
    84   1      7.4500000000000099      50.287500000000001      57.737500000000004
    85   1      9.3125000000000071      48.425000000000004      57.737500000000004
    86   1      9.3125000000000071      50.287500000000001      55.875000000000007
    87   1      7.4500000000000099      48.425000000000004      59.600000000000001
    88   1      7.4500000000000099      50.287500000000001      61.462499999999999
    89   1      9.3125000000000071      48.425000000000004      61.462499999999999
    90   1      9.3125000000000071      50.287500000000001      59.600000000000001
    91   1      9.3125000000000071      50.287500000000001      63.324999999999996
    92   1      7.4500000000000099      54.012499999999996      46.562500000000007
    93   1      9.3125000000000071      52.149999999999999      46.562500000000007
    94   1      9.3125000000000071      54.012499999999996       44.70000000000001
    95   1      7.4500000000000099      52.149999999999999      48.425000000000004
    96   1      7.4500000000000099      54.012499999999996      50.287500000000001
    97   1      9.3125000000000071      52.149999999999999      50.287500000000001
    98   1      9.3125000000000071      54.012499999999996      48.425000000000004
    99   1      7.4500000000000099      52.149999999999999      52.149999999999999
   100   1      7.4500000000000099      54.012499999999996      54.012499999999996
   101   1      9.3125000000000071      52.149999999999999      54.012499999999996
   102   1      9.3125000000000071      54.012499999999996      52.149999999999999
   103   1      7.4500000000000099      52.149999999999999      55.875000000000007
   104   1      7.4500000000000099      54.012499999999996      57.737500000000004
   105   1      9.3125000000000071      52.149999999999999      57.737500000000004
   106   1      9.3125000000000071      54.012499999999996      55.875000000000007
   107   1      7.4500000000000099      52.149999999999999      59.600000000000001
   108   1      7.4500000000000099      54.012499999999996      61.462499999999999
   109   1      9.3125000000000071      52.149999999999999      61.462499999999999
   110   1      9.3125000000000071      54.012499999999996      59.600000000000001
   111   1      7.4500000000000099      52.149999999999999      63.324999999999996
   112   1      7.4500000000000099      54.012499999999996                 65.1875
   113   1      9.3125000000000071      52.149999999999999                 65.1875
   114   1      9.3125000000000071      54.012499999999996      63.324999999999996
   115   1      9.3125000000000071      54.012499999999996      67.050000000000011
   116   1      9.3125000000000071      55.875000000000007      42.837500000000006
   117   1      7.4500000000000099      55.875000000000007       44.70000000000001
   118   1      7.4500000000000099      57.737500000000004      46.562500000000007
   119   1      9.3125000000000071      55.875000000000007      46.562500000000007
   120   1      9.3125000000000071      57.737500000000004       44.70000000000001
   121   1      7.4500000000000099      55.875000000000007      48.425000000000004
   122   1      7.4500000000000099      57.737500000000004      50.287500000000001
   123   1      9.3125000000000071      55.875000000000007      50.287500000000001
   124   1      9.3125000000000071      57.737500000000004      48.425000000000004
   125   1      7.4500000000000099      55.875000000000007      52.149999999999999
   126   1      7.4500000000000099      57.737500000000004      54.012499999999996
   127   1      9.3125000000000071      55.875000000000007      54.012499999999996
   128   1      9.3125000000000071      57.737500000000004      52.149999999999999
   129   1      7.4500000000000099      55.875000000000007      55.875000000000007
   130   1      7.4500000000000099      57.737500000000004      57.737500000000004
   131   1      9.3125000000000071      55.875000000000007      57.737500000000004
   132   1      9.3125000000000071      57.737500000000004      55.875000000000007
   133   1      7.4500000000000099      55.875000000000007      59.600000000000001
   134   1      7.4500000000000099      57.737500000000004      61.462499999999999
   135   1      9.3125000000000071      55.875000000000007      61.462499999999999
   136   1      9.3125000000000071      57.737500000000004      59.600000000000001
   137   1      7.4500000000000099      55.875000000000007      63.324999999999996
   138   1      7.4500000000000099      57.737500000000004                 65.1875
   139   1      9.3125000000000071      55.875000000000007                 65.1875
   140   1      9.3125000000000071      57.737500000000004      63.324999999999996
   141   1      7.4500000000000099      55.875000000000007      67.050000000000011
   142   1      9.3125000000000071      55.875000000000007      68.912500000000009
   143   1      9.3125000000000071      57.737500000000004      67.050000000000011
   144   1      9.3125000000000071      59.600000000000001      46.562500000000007
   145   1      7.4500000000000099      59.600000000000001      48.425000000000004
   146   1      7.4500000000000099      61.462499999999999      50.287500000000001
   147   1      9.3125000000000071      59.600000000000001      50.287500000000001
   148   1      9.3125000000000071      61.462499999999999      48.425000000000004
   149   1      7.4500000000000099      59.600000000000001      52.149999999999999
   150   1      7.4500000000000099      61.462499999999999      54.012499999999996
   151   1      9.3125000000000071      59.600000000000001      54.012499999999996
   152   1      9.3125000000000071      61.462499999999999      52.149999999999999
   153   1      7.4500000000000099      59.600000000000001      55.875000000000007
   154   1      7.4500000000000099      61.462499999999999      57.737500000000004
   155   1      9.3125000000000071      59.600000000000001      57.737500000000004
   156   1      9.3125000000000071      61.462499999999999      55.875000000000007
   157   1      7.4500000000000099      59.600000000000001      59.600000000000001
   158   1      7.4500000000000099      61.462499999999999      61.462499999999999
   159   1      9.3125000000000071      59.600000000000001      61.462499999999999
   160   1      9.3125000000000071      61.462499999999999      59.600000000000001
   161   1      7.4500000000000099      59.600000000000001      63.324999999999996
   162   1      9.3125000000000071      59.600000000000001                 65.1875
   163   1      9.3125000000000071      61.462499999999999      63.324999999999996
   164   1      9.3125000000000071      63.324999999999996      50.287500000000001
   165   1      7.4500000000000099      63.324999999999996      52.149999999999999
   166   1      7.4500000000000099                 65.1875      54.012499999999996
   167   1      9.3125000000000071      63.324999999999996      54.012499999999996
   168   1      9.3125000000000071                 65.1875      52.149999999999999
   169   1      7.4500000000000099      63.324999999999996      55.875000000000007
   170   1      7.4500000000000099                 65.1875      57.737500000000004
   171   1      9.3125000000000071      63.324999999999996      57.737500000000004
   172   1      9.3125000000000071                 65.1875      55.875000000000007
   173   1      7.4500000000000099      63.324999999999996      59.600000000000001
   174   1      9.3125000000000071      63.324999999999996      61.462499999999999
   175   1      9.3125000000000071                 65.1875      59.600000000000001
   176   1      9.3125000000000071      67.050000000000011      54.012499999999996
   177   1      7.4500000000000099      67.050000000000011      55.875000000000007
   178   1      9.3125000000000071      67.050000000000011      57.737500000000004
   179   1      9.3125000000000071      68.912500000000009      55.875000000000007
   180   1                 13.0375      35.387500000000003      55.875000000000007
   181   1      11.175000000000004      39.112500000000004      54.012499999999996
   182   1                 13.0375      37.250000000000007      54.012499999999996
   183   1                 13.0375      39.112500000000004      52.149999999999999
   184   1      11.175000000000004      37.250000000000007      55.875000000000007
   185   1      11.175000000000004      39.112500000000004      57.737500000000004
   186   1                 13.0375      37.250000000000007      57.737500000000004
   187   1                 13.0375      39.112500000000004      55.875000000000007
   188   1                 13.0375      39.112500000000004      59.600000000000001
   189   1      11.175000000000004      42.837500000000006      50.287500000000001
   190   1                 13.0375      40.975000000000009      50.287500000000001
   191   1                 13.0375      42.837500000000006      48.425000000000004
   192   1      11.175000000000004      40.975000000000009      52.149999999999999
   193   1      11.175000000000004      42.837500000000006      54.012499999999996
   194   1                 13.0375      40.975000000000009      54.012499999999996
   195   1                 13.0375      42.837500000000006      52.149999999999999
   196   1      11.175000000000004      40.975000000000009      55.875000000000007
   197   1      11.175000000000004      42.837500000000006      57.737500000000004
   198   1                 13.0375      40.975000000000009      57.737500000000004
   199   1                 13.0375      42.837500000000006      55.875000000000007
   200   1      11.175000000000004      40.975000000000009      59.600000000000001
   201   1      11.175000000000004      42.837500000000006      61.462499999999999
   202   1                 13.0375      40.975000000000009      61.462499999999999
   203   1                 13.0375      42.837500000000006      59.600000000000001
   204   1                 13.0375      42.837500000000006      63.324999999999996
   205   1      11.175000000000004      46.562500000000007      46.562500000000007
   206   1                 13.0375       44.70000000000001      46.562500000000007
   207   1                 13.0375      46.562500000000007       44.70000000000001
   208   1      11.175000000000004       44.70000000000001      48.425000000000004
   209   1      11.175000000000004      46.562500000000007      50.287500000000001
   210   1                 13.0375       44.70000000000001      50.287500000000001
   211   1                 13.0375      46.562500000000007      48.425000000000004
   212   1      11.175000000000004       44.70000000000001      52.149999999999999
   213   1      11.175000000000004      46.562500000000007      54.012499999999996
   214   1                 13.0375       44.70000000000001      54.012499999999996
   215   1                 13.0375      46.562500000000007      52.149999999999999
   216   1      11.175000000000004       44.70000000000001      55.875000000000007
   217   1      11.175000000000004      46.562500000000007      57.737500000000004
   218   1                 13.0375       44.70000000000001      57.737500000000004
   219   1                 13.0375      46.562500000000007      55.875000000000007
   220   1      11.175000000000004       44.70000000000001      59.600000000000001
   221   1      11.175000000000004      46.562500000000007      61.462499999999999
   222   1                 13.0375       44.70000000000001      61.462499999999999
   223   1                 13.0375      46.562500000000007      59.600000000000001
   224   1      11.175000000000004       44.70000000000001      63.324999999999996
   225   1      11.175000000000004      46.562500000000007                 65.1875
   226   1                 13.0375       44.70000000000001                 65.1875
   227   1                 13.0375      46.562500000000007      63.324999999999996
   228   1                 13.0375      46.562500000000007      67.050000000000011
   229   1      11.175000000000004      50.287500000000001      42.837500000000006
   230   1                 13.0375      48.425000000000004      42.837500000000006
   231   1                 13.0375      50.287500000000001      40.975000000000009
   232   1      11.175000000000004      48.425000000000004       44.70000000000001
   233   1      11.175000000000004      50.287500000000001      46.562500000000007
   234   1                 13.0375      48.425000000000004      46.562500000000007
   235   1                 13.0375      50.287500000000001       44.70000000000001
   236   1      11.175000000000004      48.425000000000004      48.425000000000004
   237   1      11.175000000000004      50.287500000000001      50.287500000000001
   238   1                 13.0375      48.425000000000004      50.287500000000001
   239   1                 13.0375      50.287500000000001      48.425000000000004
   240   1      11.175000000000004      48.425000000000004      52.149999999999999
   241   1      11.175000000000004      50.287500000000001      54.012499999999996
   242   1                 13.0375      48.425000000000004      54.012499999999996
   243   1                 13.0375      50.287500000000001      52.149999999999999
   244   1      11.175000000000004      48.425000000000004      55.875000000000007
   245   1      11.175000000000004      50.287500000000001      57.737500000000004
   246   1                 13.0375      48.425000000000004      57.737500000000004
   247   1                 13.0375      50.287500000000001      55.875000000000007
   248   1      11.175000000000004      48.425000000000004      59.600000000000001
   249   1      11.175000000000004      50.287500000000001      61.462499999999999
   250   1                 13.0375      48.425000000000004      61.462499999999999
   251   1                 13.0375      50.287500000000001      59.600000000000001
   252   1      11.175000000000004      48.425000000000004      63.324999999999996
   253   1      11.175000000000004      50.287500000000001                 65.1875
   254   1                 13.0375      48.425000000000004                 65.1875
   255   1                 13.0375      50.287500000000001      63.324999999999996
   256   1      11.175000000000004      48.425000000000004      67.050000000000011
   257   1      11.175000000000004      50.287500000000001      68.912500000000009
   258   1                 13.0375      48.425000000000004      68.912500000000009
   259   1                 13.0375      50.287500000000001      67.050000000000011
   260   1                 13.0375      50.287500000000001      70.775000000000006
   261   1      11.175000000000004      54.012499999999996      39.112500000000004
   262   1                 13.0375      52.149999999999999      39.112500000000004
   263   1                 13.0375      54.012499999999996      37.250000000000007
   264   1      11.175000000000004      52.149999999999999      40.975000000000009
   265   1      11.175000000000004      54.012499999999996      42.837500000000006
   266   1                 13.0375      52.149999999999999      42.837500000000006
   267   1                 13.0375      54.012499999999996      40.975000000000009
   268   1      11.175000000000004      52.149999999999999       44.70000000000001
   269   1      11.175000000000004      54.012499999999996      46.562500000000007
   270   1                 13.0375      52.149999999999999      46.562500000000007
   271   1                 13.0375      54.012499999999996       44.70000000000001
   272   1      11.175000000000004      52.149999999999999      48.425000000000004
   273   1      11.175000000000004      54.012499999999996      50.287500000000001
   274   1                 13.0375      52.149999999999999      50.287500000000001
   275   1                 13.0375      54.012499999999996      48.425000000000004
   276   1      11.175000000000004      52.149999999999999      52.149999999999999
   277   1      11.175000000000004      54.012499999999996      54.012499999999996
   278   1                 13.0375      52.149999999999999      54.012499999999996
   279   1                 13.0375      54.012499999999996      52.149999999999999
   280   1      11.175000000000004      52.149999999999999      55.875000000000007
   281   1      11.175000000000004      54.012499999999996      57.737500000000004
   282   1                 13.0375      52.149999999999999      57.737500000000004
   283   1                 13.0375      54.012499999999996      55.875000000000007
   284   1      11.175000000000004      52.149999999999999      59.600000000000001
   285   1      11.175000000000004      54.012499999999996      61.462499999999999
   286   1                 13.0375      52.149999999999999      61.462499999999999
   287   1                 13.0375      54.012499999999996      59.600000000000001
   288   1      11.175000000000004      52.149999999999999      63.324999999999996
   289   1      11.175000000000004      54.012499999999996                 65.1875
   290   1                 13.0375      52.149999999999999                 65.1875
   291   1                 13.0375      54.012499999999996      63.324999999999996
   292   1      11.175000000000004      52.149999999999999      67.050000000000011
   293   1      11.175000000000004      54.012499999999996      68.912500000000009
   294   1                 13.0375      52.149999999999999      68.912500000000009
   295   1                 13.0375      54.012499999999996      67.050000000000011
   296   1      11.175000000000004      52.149999999999999      70.775000000000006
   297   1      11.175000000000004      54.012499999999996      72.637500000000003
   298   1                 13.0375      52.149999999999999      72.637500000000003
   299   1                 13.0375      54.012499999999996      70.775000000000006
   300   1                 13.0375      54.012499999999996      74.500000000000014
   301   1                 13.0375      55.875000000000007      35.387500000000003
   302   1      11.175000000000004      55.875000000000007      37.250000000000007
   303   1      11.175000000000004      57.737500000000004      39.112500000000004
   304   1                 13.0375      55.875000000000007      39.112500000000004
   305   1                 13.0375      57.737500000000004      37.250000000000007
   306   1      11.175000000000004      55.875000000000007      40.975000000000009
   307   1      11.175000000000004      57.737500000000004      42.837500000000006
   308   1                 13.0375      55.875000000000007      42.837500000000006
   309   1                 13.0375      57.737500000000004      40.975000000000009
   310   1      11.175000000000004      55.875000000000007       44.70000000000001
   311   1      11.175000000000004      57.737500000000004      46.562500000000007
   312   1                 13.0375      55.875000000000007      46.562500000000007
   313   1                 13.0375      57.737500000000004       44.70000000000001
   314   1      11.175000000000004      55.875000000000007      48.425000000000004
   315   1      11.175000000000004      57.737500000000004      50.287500000000001
   316   1                 13.0375      55.875000000000007      50.287500000000001
   317   1                 13.0375      57.737500000000004      48.425000000000004
   318   1      11.175000000000004      55.875000000000007      52.149999999999999
   319   1      11.175000000000004      57.737500000000004      54.012499999999996
   320   1                 13.0375      55.875000000000007      54.012499999999996
   321   1                 13.0375      57.737500000000004      52.149999999999999
   322   1      11.175000000000004      55.875000000000007      55.875000000000007
   323   1      11.175000000000004      57.737500000000004      57.737500000000004
   324   1                 13.0375      55.875000000000007      57.737500000000004
   325   1                 13.0375      57.737500000000004      55.875000000000007
   326   1      11.175000000000004      55.875000000000007      59.600000000000001
   327   1      11.175000000000004      57.737500000000004      61.462499999999999
   328   1                 13.0375      55.875000000000007      61.462499999999999
   329   1                 13.0375      57.737500000000004      59.600000000000001
   330   1      11.175000000000004      55.875000000000007      63.324999999999996
   331   1      11.175000000000004      57.737500000000004                 65.1875
   332   1                 13.0375      55.875000000000007                 65.1875
   333   1                 13.0375      57.737500000000004      63.324999999999996
   334   1      11.175000000000004      55.875000000000007      67.050000000000011
   335   1      11.175000000000004      57.737500000000004      68.912500000000009
   336   1                 13.0375      55.875000000000007      68.912500000000009
   337   1                 13.0375      57.737500000000004      67.050000000000011
   338   1      11.175000000000004      55.875000000000007      70.775000000000006
   339   1      11.175000000000004      57.737500000000004      72.637500000000003
   340   1                 13.0375      55.875000000000007      72.637500000000003
   341   1                 13.0375      57.737500000000004      70.775000000000006
   342   1      11.175000000000004      55.875000000000007      74.500000000000014
   343   1                 13.0375      55.875000000000007      76.362500000000011
   344   1                 13.0375      57.737500000000004      74.500000000000014
   345   1                 13.0375      59.600000000000001      39.112500000000004
   346   1      11.175000000000004      59.600000000000001      40.975000000000009
   347   1      11.175000000000004      61.462499999999999      42.837500000000006
   348   1                 13.0375      59.600000000000001      42.837500000000006
   349   1                 13.0375      61.462499999999999      40.975000000000009
   350   1      11.175000000000004      59.600000000000001       44.70000000000001
   351   1      11.175000000000004      61.462499999999999      46.562500000000007
   352   1                 13.0375      59.600000000000001      46.562500000000007
   353   1                 13.0375      61.462499999999999       44.70000000000001
   354   1      11.175000000000004      59.600000000000001      48.425000000000004
   355   1      11.175000000000004      61.462499999999999      50.287500000000001
   356   1                 13.0375      59.600000000000001      50.287500000000001
   357   1                 13.0375      61.462499999999999      48.425000000000004
   358   1      11.175000000000004      59.600000000000001      52.149999999999999