model_files/CuAu/CuAu_30000/CuAu_433/CuAu_433_fcc_30337_temp.data (written by ASE) 

30337 	 atoms 
2  atom types
0.0                     121  xlo xhi
0.0                     121  ylo yhi
0.0                     121  zlo zhi


Atoms 

     1   1      1.8699999999999903      57.969999999999992      59.839999999999996
     2   1      1.8699999999999903      59.839999999999996      57.969999999999992
     3   1      120.99999999999999      59.839999999999996      59.839999999999996
     4   1      1.8699999999999903      59.839999999999996      61.710000000000001
     5   1      1.8699999999999903      61.710000000000001      59.839999999999996
     6   1      5.6099999999999923       54.22999999999999      59.839999999999996
     7   1      3.7399999999999878      57.969999999999992      57.969999999999992
     8   1      5.6099999999999923      56.100000000000001      57.969999999999992
     9   1      5.6099999999999923      57.969999999999992      56.100000000000001
    10   1      3.7399999999999878      56.100000000000001      59.839999999999996
    11   1      3.7399999999999878      57.969999999999992      61.710000000000001
    12   1      5.6099999999999923      56.100000000000001      61.710000000000001
    13   1      5.6099999999999923      57.969999999999992      59.839999999999996
    14   1      5.6099999999999923      57.969999999999992      63.580000000000005
    15   1      5.6099999999999923      59.839999999999996       54.22999999999999
    16   1      3.7399999999999878      59.839999999999996      56.100000000000001
    17   1      3.7399999999999878      61.710000000000001      57.969999999999992
    18   1      5.6099999999999923      59.839999999999996      57.969999999999992
    19   1      5.6099999999999923      61.710000000000001      56.100000000000001
    20   1      3.7399999999999878      59.839999999999996      59.839999999999996
    21   1      3.7399999999999878      61.710000000000001      61.710000000000001
    22   1      5.6099999999999923      59.839999999999996      61.710000000000001
    23   1      5.6099999999999923      61.710000000000001      59.839999999999996
    24   1      3.7399999999999878      59.839999999999996      63.580000000000005
    25   1      5.6099999999999923      59.839999999999996      65.450000000000003
    26   1      5.6099999999999923      61.710000000000001      63.580000000000005
    27   1      5.6099999999999923      63.580000000000005      57.969999999999992
    28   1      3.7399999999999878      63.580000000000005      59.839999999999996
    29   1      5.6099999999999923      63.580000000000005      61.710000000000001
    30   1      5.6099999999999923      65.450000000000003      59.839999999999996
    31   1      9.3499999999999872      50.489999999999988      59.839999999999996
    32   1      7.4799999999999907       54.22999999999999      57.969999999999992
    33   1      9.3499999999999872      52.359999999999992      57.969999999999992
    34   1      9.3499999999999872       54.22999999999999      56.100000000000001
    35   1      7.4799999999999907      52.359999999999992      59.839999999999996
    36   1      7.4799999999999907       54.22999999999999      61.710000000000001
    37   1      9.3499999999999872      52.359999999999992      61.710000000000001
    38   1      9.3499999999999872       54.22999999999999      59.839999999999996
    39   1      9.3499999999999872       54.22999999999999      63.580000000000005
    40   1      7.4799999999999907      57.969999999999992       54.22999999999999
    41   1      9.3499999999999872      56.100000000000001       54.22999999999999
    42   1      9.3499999999999872      57.969999999999992      52.359999999999992
    43   1      7.4799999999999907      56.100000000000001      56.100000000000001
    44   1      7.4799999999999907      57.969999999999992      57.969999999999992
    45   1      9.3499999999999872      56.100000000000001      57.969999999999992
    46   1      9.3499999999999872      57.969999999999992      56.100000000000001
    47   1      7.4799999999999907      56.100000000000001      59.839999999999996
    48   1      7.4799999999999907      57.969999999999992      61.710000000000001
    49   1      9.3499999999999872      56.100000000000001      61.710000000000001
    50   1      9.3499999999999872      57.969999999999992      59.839999999999996
    51   1      7.4799999999999907      56.100000000000001      63.580000000000005
    52   1      7.4799999999999907      57.969999999999992      65.450000000000003
    53   1      9.3499999999999872      56.100000000000001      65.450000000000003
    54   1      9.3499999999999872      57.969999999999992      63.580000000000005
    55   1      9.3499999999999872      57.969999999999992      67.319999999999993
    56   1      9.3499999999999872      59.839999999999996      50.489999999999988
    57   1      7.4799999999999907      59.839999999999996      52.359999999999992
    58   1      7.4799999999999907      61.710000000000001       54.22999999999999
    59   1      9.3499999999999872      59.839999999999996       54.22999999999999
    60   1      9.3499999999999872      61.710000000000001      52.359999999999992
    61   1      7.4799999999999907      59.839999999999996      56.100000000000001
    62   1      7.4799999999999907      61.710000000000001      57.969999999999992
    63   1      9.3499999999999872      59.839999999999996      57.969999999999992
    64   1      9.3499999999999872      61.710000000000001      56.100000000000001
    65   1      7.4799999999999907      59.839999999999996      59.839999999999996
    66   1      7.4799999999999907      61.710000000000001      61.710000000000001
    67   1      9.3499999999999872      59.839999999999996      61.710000000000001
    68   1      9.3499999999999872      61.710000000000001      59.839999999999996
    69   1      7.4799999999999907      59.839999999999996      63.580000000000005
    70   1      7.4799999999999907      61.710000000000001      65.450000000000003
    71   1      9.3499999999999872      59.839999999999996      65.450000000000003
    72   1      9.3499999999999872      61.710000000000001      63.580000000000005
    73   1      7.4799999999999907      59.839999999999996      67.319999999999993
    74   1      9.3499999999999872      59.839999999999996      69.189999999999998
    75   1      9.3499999999999872      61.710000000000001      67.319999999999993
    76   1      9.3499999999999872      63.580000000000005       54.22999999999999
    77   1      7.4799999999999907      63.580000000000005      56.100000000000001
    78   1      7.4799999999999907      65.450000000000003      57.969999999999992
    79   1      9.3499999999999872      63.580000000000005      57.969999999999992
    80   1      9.3499999999999872      65.450000000000003      56.100000000000001
    81   1      7.4799999999999907      63.580000000000005      59.839999999999996
    82   1      7.4799999999999907      65.450000000000003      61.710000000000001
    83   1      9.3499999999999872      63.580000000000005      61.710000000000001
    84   1      9.3499999999999872      65.450000000000003      59.839999999999996
    85   1      7.4799999999999907      63.580000000000005      63.580000000000005
    86   1      9.3499999999999872      63.580000000000005      65.450000000000003
    87   1      9.3499999999999872      65.450000000000003      63.580000000000005
    88   1      9.3499999999999872      67.319999999999993      57.969999999999992
    89   1      7.4799999999999907      67.319999999999993      59.839999999999996
    90   1      9.3499999999999872      67.319999999999993      61.710000000000001
    91   1      9.3499999999999872      69.189999999999998      59.839999999999996
    92   1      13.089999999999996      43.009999999999998      59.839999999999996
    93   1      11.219999999999992      46.749999999999993      57.969999999999992
    94   1      13.089999999999996      44.879999999999995      57.969999999999992
    95   1      13.089999999999996      46.749999999999993      56.100000000000001
    96   1      11.219999999999992      44.879999999999995      59.839999999999996
    97   1      11.219999999999992      46.749999999999993      61.710000000000001
    98   1      13.089999999999996      44.879999999999995      61.710000000000001
    99   1      13.089999999999996      46.749999999999993      59.839999999999996
   100   1      13.089999999999996      46.749999999999993      63.580000000000005
   101   1      11.219999999999992      50.489999999999988       54.22999999999999
   102   1      13.089999999999996       48.61999999999999       54.22999999999999
   103   1      13.089999999999996      50.489999999999988      52.359999999999992
   104   1      11.219999999999992       48.61999999999999      56.100000000000001
   105   1      11.219999999999992      50.489999999999988      57.969999999999992
   106   1      13.089999999999996       48.61999999999999      57.969999999999992
   107   1      13.089999999999996      50.489999999999988      56.100000000000001
   108   1      11.219999999999992       48.61999999999999      59.839999999999996
   109   1      11.219999999999992      50.489999999999988      61.710000000000001
   110   1      13.089999999999996       48.61999999999999      61.710000000000001
   111   1      13.089999999999996      50.489999999999988      59.839999999999996
   112   1      11.219999999999992       48.61999999999999      63.580000000000005
   113   1      11.219999999999992      50.489999999999988      65.450000000000003
   114   1      13.089999999999996       48.61999999999999      65.450000000000003
   115   1      13.089999999999996      50.489999999999988      63.580000000000005
   116   1      13.089999999999996      50.489999999999988      67.319999999999993
   117   1      11.219999999999992       54.22999999999999      50.489999999999988
   118   1      13.089999999999996      52.359999999999992      50.489999999999988
   119   1      13.089999999999996       54.22999999999999       48.61999999999999
   120   1      11.219999999999992      52.359999999999992      52.359999999999992
   121   1      11.219999999999992       54.22999999999999       54.22999999999999
   122   1      13.089999999999996      52.359999999999992       54.22999999999999
   123   1      13.089999999999996       54.22999999999999      52.359999999999992
   124   1      11.219999999999992      52.359999999999992      56.100000000000001
   125   1      11.219999999999992       54.22999999999999      57.969999999999992
   126   1      13.089999999999996      52.359999999999992      57.969999999999992
   127   1      13.089999999999996       54.22999999999999      56.100000000000001
   128   1      11.219999999999992      52.359999999999992      59.839999999999996
   129   1      11.219999999999992       54.22999999999999      61.710000000000001
   130   1      13.089999999999996      52.359999999999992      61.710000000000001
   131   1      13.089999999999996       54.22999999999999      59.839999999999996
   132   1      11.219999999999992      52.359999999999992      63.580000000000005
   133   1      11.219999999999992       54.22999999999999      65.450000000000003
   134   1      13.089999999999996      52.359999999999992      65.450000000000003
   135   1      13.089999999999996       54.22999999999999      63.580000000000005
   136   1      11.219999999999992      52.359999999999992      67.319999999999993
   137   1      11.219999999999992       54.22999999999999      69.189999999999998
   138   1      13.089999999999996      52.359999999999992      69.189999999999998
   139   1      13.089999999999996       54.22999999999999      67.319999999999993
   140   1      13.089999999999996       54.22999999999999      71.060000000000002
   141   1      11.219999999999992      57.969999999999992      46.749999999999993
   142   1      13.089999999999996      56.100000000000001      46.749999999999993
   143   1      13.089999999999996      57.969999999999992      44.879999999999995
   144   1      11.219999999999992      56.100000000000001       48.61999999999999
   145   1      11.219999999999992      57.969999999999992      50.489999999999988
   146   1      13.089999999999996      56.100000000000001      50.489999999999988
   147   1      13.089999999999996      57.969999999999992       48.61999999999999
   148   1      11.219999999999992      56.100000000000001      52.359999999999992
   149   1      11.219999999999992      57.969999999999992       54.22999999999999
   150   1      13.089999999999996      56.100000000000001       54.22999999999999
   151   1      13.089999999999996      57.969999999999992      52.359999999999992
   152   1      11.219999999999992      56.100000000000001      56.100000000000001
   153   1      11.219999999999992      57.969999999999992      57.969999999999992
   154   1      13.089999999999996      56.100000000000001      57.969999999999992
   155   1      13.089999999999996      57.969999999999992      56.100000000000001
   156   1      11.219999999999992      56.100000000000001      59.839999999999996
   157   1      11.219999999999992      57.969999999999992      61.710000000000001
   158   1      13.089999999999996      56.100000000000001      61.710000000000001
   159   1      13.089999999999996      57.969999999999992      59.839999999999996
   160   1      11.219999999999992      56.100000000000001      63.580000000000005
   161   1      11.219999999999992      57.969999999999992      65.450000000000003
   162   1      13.089999999999996      56.100000000000001      65.450000000000003
   163   1      13.089999999999996      57.969999999999992      63.580000000000005
   164   1      11.219999999999992      56.100000000000001      67.319999999999993
   165   1      11.219999999999992      57.969999999999992      69.189999999999998
   166   1      13.089999999999996      56.100000000000001      69.189999999999998
   167   1      13.089999999999996      57.969999999999992      67.319999999999993
   168   1      11.219999999999992      56.100000000000001      71.060000000000002
   169   1      11.219999999999992      57.969999999999992      72.930000000000007
   170   1      13.089999999999996      56.100000000000001      72.930000000000007
   171   1      13.089999999999996      57.969999999999992      71.060000000000002
   172   1      13.089999999999996      57.969999999999992      74.799999999999997
   173   1      13.089999999999996      59.839999999999996      43.009999999999998
   174   1      11.219999999999992      59.839999999999996      44.879999999999995
   175   1      11.219999999999992      61.710000000000001      46.749999999999993
   176   1      13.089999999999996      59.839999999999996      46.749999999999993
   177   1      13.089999999999996      61.710000000000001      44.879999999999995
   178   1      11.219999999999992      59.839999999999996       48.61999999999999
   179   1      11.219999999999992      61.710000000000001      50.489999999999988
   180   1      13.089999999999996      59.839999999999996      50.489999999999988
   181   1      13.089999999999996      61.710000000000001       48.61999999999999
   182   1      11.219999999999992      59.839999999999996      52.359999999999992
   183   1      11.219999999999992      61.710000000000001       54.22999999999999
   184   1      13.089999999999996      59.839999999999996       54.22999999999999
   185   1      13.089999999999996      61.710000000000001      52.359999999999992
   186   1      11.219999999999992      59.839999999999996      56.100000000000001
   187   1      11.219999999999992      61.710000000000001      57.969999999999992
   188   1      13.089999999999996      59.839999999999996      57.969999999999992
   189   1      13.089999999999996      61.710000000000001      56.100000000000001
   190   1      11.219999999999992      59.839999999999996      59.839999999999996
   191   1      11.219999999999992      61.710000000000001      61.710000000000001
   192   1      13.089999999999996      59.839999999999996      61.710000000000001
   193   1      13.089999999999996      61.710000000000001      59.839999999999996
   194   1      11.219999999999992      59.839999999999996      63.580000000000005
   195   1      11.219999999999992      61.710000000000001      65.450000000000003
   196   1      13.089999999999996      59.839999999999996      65.450000000000003
   197   1      13.089999999999996      61.710000000000001      63.580000000000005
   198   1      11.219999999999992      59.839999999999996      67.319999999999993
   199   1      11.219999999999992      61.710000000000001      69.189999999999998
   200   1      13.089999999999996      59.839999999999996      69.189999999999998
   201   1      13.089999999999996      61.710000000000001      67.319999999999993
   202   1      11.219999999999992      59.839999999999996      71.060000000000002
   203   1      11.219999999999992      61.710000000000001      72.930000000000007
   204   1      13.089999999999996      59.839999999999996      72.930000000000007
   205   1      13.089999999999996      61.710000000000001      71.060000000000002
   206   1      11.219999999999992      59.839999999999996      74.799999999999997
   207   1      13.089999999999996      59.839999999999996      76.670000000000002
   208   1      13.089999999999996      61.710000000000001      74.799999999999997
   209   1      13.089999999999996      63.580000000000005      46.749999999999993
   210   1      11.219999999999992      63.580000000000005       48.61999999999999
   211   1      11.219999999999992      65.450000000000003      50.489999999999988
   212   1      13.089999999999996      63.580000000000005      50.489999999999988
   213   1      13.089999999999996      65.450000000000003       48.61999999999999
   214   1      11.219999999999992      63.580000000000005      52.359999999999992
   215   1      11.219999999999992      65.450000000000003       54.22999999999999
   216   1      13.089999999999996      63.580000000000005       54.22999999999999
   217   1      13.089999999999996      65.450000000000003      52.359999999999992
   218   1      11.219999999999992      63.580000000000005      56.100000000000001
   219   1      11.219999999999992      65.450000000000003      57.969999999999992
   220   1      13.089999999999996      63.580000000000005      57.969999999999992
   221   1      13.089999999999996      65.450000000000003      56.100000000000001
   222   1      11.219999999999992      63.580000000000005      59.839999999999996
   223   1      11.219999999999992      65.450000000000003      61.710000000000001
   224   1      13.089999999999996      63.580000000000005      61.710000000000001
   225   1      13.089999999999996      65.450000000000003      59.839999999999996
   226   1      11.219999999999992      63.580000000000005      63.580000000000005
   227   1      11.219999999999992      65.450000000000003      65.450000000000003
   228   1      13.089999999999996      63.580000000000005      65.450000000000003
   229   1      13.089999999999996      65.450000000000003      63.580000000000005
   230   1      11.219999999999992      63.580000000000005      67.319999999999993
   231   1      11.219999999999992      65.450000000000003      69.189999999999998
   232   1      13.089999999999996      63.580000000000005      69.189999999999998
   233   1      13.089999999999996      65.450000000000003      67.319999999999993
   234   1      11.219999999999992      63.580000000000005      71.060000000000002
   235   1      13.089999999999996      63.580000000000005      72.930000000000007
   236   1      13.089999999999996      65.450000000000003      71.060000000000002
   237   1      13.089999999999996      67.319999999999993      50.489999999999988
   238   1      11.219999999999992      67.319999999999993      52.359999999999992
   239   1      11.219999999999992      69.189999999999998       54.22999999999999
   240   1      13.089999999999996      67.319999999999993       54.22999999999999
   241   1      13.089999999999996      69.189999999999998      52.359999999999992
   242   1      11.219999999999992      67.319999999999993      56.100000000000001
   243   1      11.219999999999992      69.189999999999998      57.969999999999992
   244   1      13.089999999999996      67.319999999999993      57.969999999999992
   245   1      13.089999999999996      69.189999999999998      56.100000000000001
   246   1      11.219999999999992      67.319999999999993      59.839999999999996
   247   1      11.219999999999992      69.189999999999998      61.710000000000001
   248   1      13.089999999999996      67.319999999999993      61.710000000000001
   249   1      13.089999999999996      69.189999999999998      59.839999999999996
   250   1      11.219999999999992      67.319999999999993      63.580000000000005
   251   1      11.219999999999992      69.189999999999998      65.450000000000003
   252   1      13.089999999999996      67.319999999999993      65.450000000000003
   253   1      13.089999999999996      69.189999999999998      63.580000000000005
   254   1      11.219999999999992      67.319999999999993      67.319999999999993
   255   1      13.089999999999996      67.319999999999993      69.189999999999998
   256   1      13.089999999999996      69.189999999999998      67.319999999999993
   257   1      13.089999999999996      71.060000000000002       54.22999999999999
   258   1      11.219999999999992      71.060000000000002      56.100000000000001
   259   1      11.219999999999992      72.930000000000007      57.969999999999992
   260   1      13.089999999999996      71.060000000000002      57.969999999999992
   261   1      13.089999999999996      72.930000000000007      56.100000000000001
   262   1      11.219999999999992      71.060000000000002      59.839999999999996
   263   1      11.219999999999992      72.930000000000007      61.710000000000001
   264   1      13.089999999999996      71.060000000000002      61.710000000000001
   265   1      13.089999999999996      72.930000000000007      59.839999999999996
   266   1      11.219999999999992      71.060000000000002      63.580000000000005
   267   1      13.089999999999996      71.060000000000002      65.450000000000003
   268   1      13.089999999999996      72.930000000000007      63.580000000000005
   269   1      13.089999999999996      74.799999999999997      57.969999999999992
   270   1      11.219999999999992      74.799999999999997      59.839999999999996
   271   1      13.089999999999996      74.799999999999997      61.710000000000001
   272   1      13.089999999999996      76.670000000000002      59.839999999999996
   273   1      16.829999999999991      39.269999999999989      59.839999999999996
   274   1      14.959999999999994      43.009999999999998      57.969999999999992
   275   1      16.829999999999991      41.139999999999993      57.969999999999992
   276   1      16.829999999999991      43.009999999999998      56.100000000000001
   277   1      14.959999999999994      41.139999999999993      59.839999999999996
   278   1      14.959999999999994      43.009999999999998      61.710000000000001
   279   1      16.829999999999991      41.139999999999993      61.710000000000001
   280   1      16.829999999999991      43.009999999999998      59.839999999999996
   281   1      16.829999999999991      43.009999999999998      63.580000000000005
   282   1      14.959999999999994      46.749999999999993       54.22999999999999
   283   1      16.829999999999991      44.879999999999995       54.22999999999999
   284   1      16.829999999999991      46.749999999999993      52.359999999999992
   285   1      14.959999999999994      44.879999999999995      56.100000000000001
   286   1      14.959999999999994      46.749999999999993      57.969999999999992
   287   1      16.829999999999991      44.879999999999995      57.969999999999992
   288   1      16.829999999999991      46.749999999999993      56.100000000000001
   289   1      14.959999999999994      44.879999999999995      59.839999999999996
   290   1      14.959999999999994      46.749999999999993      61.710000000000001
   291   1      16.829999999999991      44.879999999999995      61.710000000000001
   292   1      16.829999999999991      46.749999999999993      59.839999999999996
   293   1      14.959999999999994      44.879999999999995      63.580000000000005
   294   1      14.959999999999994      46.749999999999993      65.450000000000003
   295   1      16.829999999999991      44.879999999999995      65.450000000000003
   296   1      16.829999999999991      46.749999999999993      63.580000000000005
   297   1      16.829999999999991      46.749999999999993      67.319999999999993
   298   1      14.959999999999994      50.489999999999988      50.489999999999988
   299   1      16.829999999999991       48.61999999999999      50.489999999999988
   300   1      16.829999999999991      50.489999999999988       48.61999999999999
   301   1      14.959999999999994       48.61999999999999      52.359999999999992
   302   1      14.959999999999994      50.489999999999988       54.22999999999999
   303   1      16.829999999999991       48.61999999999999       54.22999999999999
   304   1      16.829999999999991      50.489999999999988      52.359999999999992
   305   1      14.959999999999994       48.61999999999999      56.100000000000001
   306   1      14.959999999999994      50.489999999999988      57.969999999999992
   307   1      16.829999999999991       48.61999999999999      57.969999999999992
   308   1      16.829999999999991      50.489999999999988      56.100000000000001
   309   1      14.959999999999994       48.61999999999999      59.839999999999996
   310   1      14.959999999999994      50.489999999999988      61.710000000000001
   311   1      16.829999999999991       48.61999999999999      61.710000000000001
   312   1      16.829999999999991      50.489999999999988      59.839999999999996
   313   1      14.959999999999994       48.61999999999999      63.580000000000005
   314   1      14.959999999999994      50.489999999999988      65.450000000000003
   315   1      16.829999999999991       48.61999999999999      65.450000000000003
   316   1      16.829999999999991      50.489999999999988      63.580000000000005
   317   1      14.959999999999994       48.61999999999999      67.319999999999993
   318   1      14.959999999999994      50.489999999999988      69.189999999999998
   319   1      16.829999999999991       48.61999999999999      69.189999999999998
   320   1      16.829999999999991      50.489999999999988      67.319999999999993
   321   1      16.829999999999991      50.489999999999988      71.060000000000002
   322   1      14.959999999999994       54.22999999999999      46.749999999999993
   323   1      16.829999999999991      52.359999999999992      46.749999999999993
   324   1      16.829999999999991       54.22999999999999      44.879999999999995
   325   1      14.959999999999994      52.359999999999992       48.61999999999999
   326   1      14.959999999999994       54.22999999999999      50.489999999999988
   327   1      16.829999999999991      52.359999999999992      50.489999999999988
   328   1      16.829999999999991       54.22999999999999       48.61999999999999
   329   1      14.959999999999994      52.359999999999992      52.359999999999992
   330   1      14.959999999999994       54.22999999999999       54.22999999999999
   331   1      16.829999999999991      52.359999999999992       54.22999999999999
   332   1      16.829999999999991       54.22999999999999      52.359999999999992
   333   1      14.959999999999994      52.359999999999992      56.100000000000001
   334   1      14.959999999999994       54.22999999999999      57.969999999999992
   335   1      16.829999999999991      52.359999999999992      57.969999999999992
   336   1      16.829999999999991       54.22999999999999      56.100000000000001
   337   1      14.959999999999994      52.359999999999992      59.839999999999996
   338   1      14.959999999999994       54.22999999999999      61.710000000000001
   339   1      16.829999999999991      52.359999999999992      61.710000000000001
   340   1      16.829999999999991       54.22999999999999      59.839999999999996
   341   1      14.959999999999994      52.359999999999992      63.580000000000005
   342   1      14.959999999999994       54.22999999999999      65.450000000000003
   343   1      16.829999999999991      52.359999999999992      65.450000000000003
   344   1      16.829999999999991       54.22999999999999      63.580000000000005
   345   1      14.959999999999994      52.359999999999992      67.319999999999993
   346   1      14.959999999999994       54.22999999999999      69.189999999999998
   347   1      16.829999999999991      52.359999999999992      69.189999999999998
   348   1      16.829999999999991       54.22999999999999      67.319999999999993
   349   1      14.959999999999994      52.359999999999992      71.060000000000002
   350   1      14.959999999999994       54.22999999999999      72.930000000000007
   351   1      16.829999999999991      52.359999999999992      72.930000000000007
   352   1      16.829999999999991       54.22999999999999      71.060000000000002
   353   1      16.829999999999991       54.22999999999999      74.799999999999997
   354   1      14.959999999999994      57.969999999999992      43.009999999999998
   355   1      16.829999999999991      56.100000000000001      43.009999999999998
   356   1      16.829999999999991      57.969999999999992      41.139999999999993
   357   1      14.959999999999994      56.100000000000001      44.879999999999995
   358   1      14.959999999999994      57.969999999999992      46.749999999999993