model_files/PtCu/PtCu_30000/PtCu_311/PtCu_311_fcc_30453_temp.data (written by ASE) 

30453 	 atoms 
2  atom types
0.0                      96  xlo xhi
0.0                      96  ylo yhi
0.0                      96  zlo zhi


Atoms 

     1   1      95.999999999999986      46.199999999999989      48.124999999999993
     2   1      95.999999999999986      48.124999999999993      46.199999999999989
     3   1      95.999999999999986      48.124999999999993       50.04999999999999
     4   1      95.999999999999986       50.04999999999999      48.124999999999993
     5   1      3.8499999999999872      34.649999999999977      48.124999999999993
     6   1      3.8499999999999872      36.574999999999989      46.199999999999989
     7   1      3.8499999999999872      38.499999999999986      44.274999999999991
     8   1      3.8499999999999872      36.574999999999989       50.04999999999999
     9   1      3.8499999999999872      38.499999999999986      48.124999999999993
    10   1      3.8499999999999872      38.499999999999986      51.974999999999987
    11   1      3.8499999999999872       40.42499999999999      42.349999999999987
    12   1      3.8499999999999872      42.349999999999987       40.42499999999999
    13   1      1.9249999999999898      42.349999999999987      46.199999999999989
    14   1      3.8499999999999872       40.42499999999999      46.199999999999989
    15   1      3.8499999999999872      42.349999999999987      44.274999999999991
    16   1      1.9249999999999898       40.42499999999999      48.124999999999993
    17   1      1.9249999999999898      42.349999999999987       50.04999999999999
    18   1      3.8499999999999872       40.42499999999999       50.04999999999999
    19   1      3.8499999999999872      42.349999999999987      48.124999999999993
    20   1      3.8499999999999872       40.42499999999999      53.899999999999984
    21   1      3.8499999999999872      42.349999999999987      51.974999999999987
    22   1      3.8499999999999872      42.349999999999987      55.824999999999982
    23   1      3.8499999999999872      44.274999999999991      38.499999999999986
    24   1      3.8499999999999872      46.199999999999989      36.574999999999989
    25   1      1.9249999999999898      46.199999999999989      42.349999999999987
    26   1      3.8499999999999872      44.274999999999991      42.349999999999987
    27   1      3.8499999999999872      46.199999999999989       40.42499999999999
    28   1      1.9249999999999898      44.274999999999991      44.274999999999991
    29   1      1.9249999999999898      46.199999999999989      46.199999999999989
    30   1      3.8499999999999872      44.274999999999991      46.199999999999989
    31   1      3.8499999999999872      46.199999999999989      44.274999999999991
    32   1      1.9249999999999898      44.274999999999991      48.124999999999993
    33   1      1.9249999999999898      46.199999999999989       50.04999999999999
    34   1      3.8499999999999872      44.274999999999991       50.04999999999999
    35   1      3.8499999999999872      46.199999999999989      48.124999999999993
    36   1      1.9249999999999898      44.274999999999991      51.974999999999987
    37   1      1.9249999999999898      46.199999999999989      53.899999999999984
    38   1      3.8499999999999872      44.274999999999991      53.899999999999984
    39   1      3.8499999999999872      46.199999999999989      51.974999999999987
    40   1      3.8499999999999872      44.274999999999991      57.749999999999979
    41   1      3.8499999999999872      46.199999999999989      55.824999999999982
    42   1      3.8499999999999872      46.199999999999989      59.674999999999983
    43   1      3.8499999999999872      48.124999999999993      34.649999999999977
    44   1      3.8499999999999872      48.124999999999993      38.499999999999986
    45   1      3.8499999999999872       50.04999999999999      36.574999999999989
    46   1      1.9249999999999898      48.124999999999993       40.42499999999999
    47   1      1.9249999999999898       50.04999999999999      42.349999999999987
    48   1      3.8499999999999872      48.124999999999993      42.349999999999987
    49   1      3.8499999999999872       50.04999999999999       40.42499999999999
    50   1      1.9249999999999898      48.124999999999993      44.274999999999991
    51   1      1.9249999999999898       50.04999999999999      46.199999999999989
    52   1      3.8499999999999872      48.124999999999993      46.199999999999989
    53   1      3.8499999999999872       50.04999999999999      44.274999999999991
    54   1      1.9249999999999898      48.124999999999993      48.124999999999993
    55   1      1.9249999999999898       50.04999999999999       50.04999999999999
    56   1      3.8499999999999872      48.124999999999993       50.04999999999999
    57   1      3.8499999999999872       50.04999999999999      48.124999999999993
    58   1      1.9249999999999898      48.124999999999993      51.974999999999987
    59   1      1.9249999999999898       50.04999999999999      53.899999999999984
    60   1      3.8499999999999872      48.124999999999993      53.899999999999984
    61   1      3.8499999999999872       50.04999999999999      51.974999999999987
    62   1      1.9249999999999898      48.124999999999993      55.824999999999982
    63   1      3.8499999999999872      48.124999999999993      57.749999999999979
    64   1      3.8499999999999872       50.04999999999999      55.824999999999982
    65   1      3.8499999999999872      48.124999999999993       61.59999999999998
    66   1      3.8499999999999872       50.04999999999999      59.674999999999983
    67   1      3.8499999999999872      51.974999999999987      38.499999999999986
    68   1      3.8499999999999872      51.974999999999987      42.349999999999987
    69   1      3.8499999999999872      53.899999999999984       40.42499999999999
    70   1      1.9249999999999898      51.974999999999987      44.274999999999991
    71   1      1.9249999999999898      53.899999999999984      46.199999999999989
    72   1      3.8499999999999872      51.974999999999987      46.199999999999989
    73   1      3.8499999999999872      53.899999999999984      44.274999999999991
    74   1      1.9249999999999898      51.974999999999987      48.124999999999993
    75   1      1.9249999999999898      53.899999999999984       50.04999999999999
    76   1      3.8499999999999872      51.974999999999987       50.04999999999999
    77   1      3.8499999999999872      53.899999999999984      48.124999999999993
    78   1      1.9249999999999898      51.974999999999987      51.974999999999987
    79   1      3.8499999999999872      51.974999999999987      53.899999999999984
    80   1      3.8499999999999872      53.899999999999984      51.974999999999987
    81   1      3.8499999999999872      51.974999999999987      57.749999999999979
    82   1      3.8499999999999872      53.899999999999984      55.824999999999982
    83   1      3.8499999999999872      55.824999999999982      42.349999999999987
    84   1      3.8499999999999872      55.824999999999982      46.199999999999989
    85   1      3.8499999999999872      57.749999999999979      44.274999999999991
    86   1      1.9249999999999898      55.824999999999982      48.124999999999993
    87   1      3.8499999999999872      55.824999999999982       50.04999999999999
    88   1      3.8499999999999872      57.749999999999979      48.124999999999993
    89   1      3.8499999999999872      55.824999999999982      53.899999999999984
    90   1      3.8499999999999872      57.749999999999979      51.974999999999987
    91   1      3.8499999999999872      59.674999999999983      46.199999999999989
    92   1      3.8499999999999872      59.674999999999983       50.04999999999999
    93   1      3.8499999999999872       61.59999999999998      48.124999999999993
    94   1      7.6999999999999886      23.099999999999991      48.124999999999993
    95   1      7.6999999999999886      25.024999999999984      46.199999999999989
    96   1      7.6999999999999886      26.949999999999989      44.274999999999991
    97   1      7.6999999999999886      25.024999999999984       50.04999999999999
    98   1      7.6999999999999886      26.949999999999989      48.124999999999993
    99   1      7.6999999999999886      26.949999999999989      51.974999999999987
   100   1      7.6999999999999886      28.874999999999989      42.349999999999987
   101   1      7.6999999999999886      30.799999999999986       40.42499999999999
   102   1      5.7749999999999915      30.799999999999986      46.199999999999989
   103   1      7.6999999999999886      28.874999999999989      46.199999999999989
   104   1      7.6999999999999886      30.799999999999986      44.274999999999991
   105   1      5.7749999999999915      28.874999999999989      48.124999999999993
   106   1      5.7749999999999915      30.799999999999986       50.04999999999999
   107   1      7.6999999999999886      28.874999999999989       50.04999999999999
   108   1      7.6999999999999886      30.799999999999986      48.124999999999993
   109   1      7.6999999999999886      28.874999999999989      53.899999999999984
   110   1      7.6999999999999886      30.799999999999986      51.974999999999987
   111   1      7.6999999999999886      30.799999999999986      55.824999999999982
   112   1      7.6999999999999886       32.72499999999998      38.499999999999986
   113   1      7.6999999999999886      34.649999999999977      36.574999999999989
   114   1      5.7749999999999915      34.649999999999977      42.349999999999987
   115   1      7.6999999999999886       32.72499999999998      42.349999999999987
   116   1      7.6999999999999886      34.649999999999977       40.42499999999999
   117   1      5.7749999999999915       32.72499999999998      44.274999999999991
   118   1      5.7749999999999915      34.649999999999977      46.199999999999989
   119   1      7.6999999999999886       32.72499999999998      46.199999999999989
   120   1      7.6999999999999886      34.649999999999977      44.274999999999991
   121   1      5.7749999999999915       32.72499999999998      48.124999999999993
   122   1      5.7749999999999915      34.649999999999977       50.04999999999999
   123   1      7.6999999999999886       32.72499999999998       50.04999999999999
   124   1      7.6999999999999886      34.649999999999977      48.124999999999993
   125   1      5.7749999999999915       32.72499999999998      51.974999999999987
   126   1      5.7749999999999915      34.649999999999977      53.899999999999984
   127   1      7.6999999999999886       32.72499999999998      53.899999999999984
   128   1      7.6999999999999886      34.649999999999977      51.974999999999987
   129   1      7.6999999999999886       32.72499999999998      57.749999999999979
   130   1      7.6999999999999886      34.649999999999977      55.824999999999982
   131   1      7.6999999999999886      34.649999999999977      59.674999999999983
   132   1      7.6999999999999886      36.574999999999989      34.649999999999977
   133   1      7.6999999999999886      38.499999999999986       32.72499999999998
   134   1      5.7749999999999915      38.499999999999986      38.499999999999986
   135   1      7.6999999999999886      36.574999999999989      38.499999999999986
   136   1      7.6999999999999886      38.499999999999986      36.574999999999989
   137   1      5.7749999999999915      36.574999999999989       40.42499999999999
   138   1      5.7749999999999915      38.499999999999986      42.349999999999987
   139   1      7.6999999999999886      36.574999999999989      42.349999999999987
   140   1      7.6999999999999886      38.499999999999986       40.42499999999999
   141   1      5.7749999999999915      36.574999999999989      44.274999999999991
   142   1      5.7749999999999915      38.499999999999986      46.199999999999989
   143   1      7.6999999999999886      36.574999999999989      46.199999999999989
   144   1      7.6999999999999886      38.499999999999986      44.274999999999991
   145   1      5.7749999999999915      36.574999999999989      48.124999999999993
   146   1      5.7749999999999915      38.499999999999986       50.04999999999999
   147   1      7.6999999999999886      36.574999999999989       50.04999999999999
   148   1      7.6999999999999886      38.499999999999986      48.124999999999993
   149   1      5.7749999999999915      36.574999999999989      51.974999999999987
   150   1      5.7749999999999915      38.499999999999986      53.899999999999984
   151   1      7.6999999999999886      36.574999999999989      53.899999999999984
   152   1      7.6999999999999886      38.499999999999986      51.974999999999987
   153   1      5.7749999999999915      36.574999999999989      55.824999999999982
   154   1      5.7749999999999915      38.499999999999986      57.749999999999979
   155   1      7.6999999999999886      36.574999999999989      57.749999999999979
   156   1      7.6999999999999886      38.499999999999986      55.824999999999982
   157   1      7.6999999999999886      36.574999999999989       61.59999999999998
   158   1      7.6999999999999886      38.499999999999986      59.674999999999983
   159   1      7.6999999999999886      38.499999999999986      63.524999999999991
   160   1      7.6999999999999886       40.42499999999999      30.799999999999986
   161   1      7.6999999999999886      42.349999999999987      28.874999999999989
   162   1      5.7749999999999915      42.349999999999987      34.649999999999977
   163   1      7.6999999999999886       40.42499999999999      34.649999999999977
   164   1      7.6999999999999886      42.349999999999987       32.72499999999998
   165   1      5.7749999999999915       40.42499999999999      36.574999999999989
   166   1      5.7749999999999915      42.349999999999987      38.499999999999986
   167   1      7.6999999999999886       40.42499999999999      38.499999999999986
   168   1      7.6999999999999886      42.349999999999987      36.574999999999989
   169   1      5.7749999999999915       40.42499999999999       40.42499999999999
   170   1      5.7749999999999915      42.349999999999987      42.349999999999987
   171   1      7.6999999999999886       40.42499999999999      42.349999999999987
   172   1      7.6999999999999886      42.349999999999987       40.42499999999999
   173   1      5.7749999999999915       40.42499999999999      44.274999999999991
   174   1      5.7749999999999915      42.349999999999987      46.199999999999989
   175   1      7.6999999999999886       40.42499999999999      46.199999999999989
   176   1      7.6999999999999886      42.349999999999987      44.274999999999991
   177   1      5.7749999999999915       40.42499999999999      48.124999999999993
   178   1      5.7749999999999915      42.349999999999987       50.04999999999999
   179   1      7.6999999999999886       40.42499999999999       50.04999999999999
   180   1      7.6999999999999886      42.349999999999987      48.124999999999993
   181   1      5.7749999999999915       40.42499999999999      51.974999999999987
   182   1      5.7749999999999915      42.349999999999987      53.899999999999984
   183   1      7.6999999999999886       40.42499999999999      53.899999999999984
   184   1      7.6999999999999886      42.349999999999987      51.974999999999987
   185   1      5.7749999999999915       40.42499999999999      55.824999999999982
   186   1      5.7749999999999915      42.349999999999987      57.749999999999979
   187   1      7.6999999999999886       40.42499999999999      57.749999999999979
   188   1      7.6999999999999886      42.349999999999987      55.824999999999982
   189   1      5.7749999999999915       40.42499999999999      59.674999999999983
   190   1      5.7749999999999915      42.349999999999987       61.59999999999998
   191   1      7.6999999999999886       40.42499999999999       61.59999999999998
   192   1      7.6999999999999886      42.349999999999987      59.674999999999983
   193   1      7.6999999999999886       40.42499999999999      65.449999999999989
   194   1      7.6999999999999886      42.349999999999987      63.524999999999991
   195   1      7.6999999999999886      42.349999999999987      67.374999999999986
   196   1      7.6999999999999886      44.274999999999991      26.949999999999989
   197   1      7.6999999999999886      46.199999999999989      25.024999999999984
   198   1      5.7749999999999915      46.199999999999989      30.799999999999986
   199   1      7.6999999999999886      44.274999999999991      30.799999999999986
   200   1      7.6999999999999886      46.199999999999989      28.874999999999989
   201   1      5.7749999999999915      44.274999999999991       32.72499999999998
   202   1      5.7749999999999915      46.199999999999989      34.649999999999977
   203   1      7.6999999999999886      44.274999999999991      34.649999999999977
   204   1      7.6999999999999886      46.199999999999989       32.72499999999998
   205   1      5.7749999999999915      44.274999999999991      36.574999999999989
   206   1      5.7749999999999915      46.199999999999989      38.499999999999986
   207   1      7.6999999999999886      44.274999999999991      38.499999999999986
   208   1      7.6999999999999886      46.199999999999989      36.574999999999989
   209   1      5.7749999999999915      44.274999999999991       40.42499999999999
   210   1      5.7749999999999915      46.199999999999989      42.349999999999987
   211   1      7.6999999999999886      44.274999999999991      42.349999999999987
   212   1      7.6999999999999886      46.199999999999989       40.42499999999999
   213   1      5.7749999999999915      44.274999999999991      44.274999999999991
   214   1      5.7749999999999915      46.199999999999989      46.199999999999989
   215   1      7.6999999999999886      44.274999999999991      46.199999999999989
   216   1      7.6999999999999886      46.199999999999989      44.274999999999991
   217   1      5.7749999999999915      44.274999999999991      48.124999999999993
   218   1      5.7749999999999915      46.199999999999989       50.04999999999999
   219   1      7.6999999999999886      44.274999999999991       50.04999999999999
   220   1      7.6999999999999886      46.199999999999989      48.124999999999993
   221   1      5.7749999999999915      44.274999999999991      51.974999999999987
   222   1      5.7749999999999915      46.199999999999989      53.899999999999984
   223   1      7.6999999999999886      44.274999999999991      53.899999999999984
   224   1      7.6999999999999886      46.199999999999989      51.974999999999987
   225   1      5.7749999999999915      44.274999999999991      55.824999999999982
   226   1      5.7749999999999915      46.199999999999989      57.749999999999979
   227   1      7.6999999999999886      44.274999999999991      57.749999999999979
   228   1      7.6999999999999886      46.199999999999989      55.824999999999982
   229   1      5.7749999999999915      44.274999999999991      59.674999999999983
   230   1      5.7749999999999915      46.199999999999989       61.59999999999998
   231   1      7.6999999999999886      44.274999999999991       61.59999999999998
   232   1      7.6999999999999886      46.199999999999989      59.674999999999983
   233   1      5.7749999999999915      44.274999999999991      63.524999999999991
   234   1      5.7749999999999915      46.199999999999989      65.449999999999989
   235   1      7.6999999999999886      44.274999999999991      65.449999999999989
   236   1      7.6999999999999886      46.199999999999989      63.524999999999991
   237   1      7.6999999999999886      44.274999999999991      69.299999999999983
   238   1      7.6999999999999886      46.199999999999989      67.374999999999986
   239   1      7.6999999999999886      46.199999999999989      71.224999999999994
   240   1      7.6999999999999886      48.124999999999993      23.099999999999991
   241   1      7.6999999999999886      48.124999999999993      26.949999999999989
   242   1      7.6999999999999886       50.04999999999999      25.024999999999984
   243   1      5.7749999999999915      48.124999999999993      28.874999999999989
   244   1      5.7749999999999915       50.04999999999999      30.799999999999986
   245   1      7.6999999999999886      48.124999999999993      30.799999999999986
   246   1      7.6999999999999886       50.04999999999999      28.874999999999989
   247   1      5.7749999999999915      48.124999999999993       32.72499999999998
   248   1      5.7749999999999915       50.04999999999999      34.649999999999977
   249   1      7.6999999999999886      48.124999999999993      34.649999999999977
   250   1      7.6999999999999886       50.04999999999999       32.72499999999998
   251   1      5.7749999999999915      48.124999999999993      36.574999999999989
   252   1      5.7749999999999915       50.04999999999999      38.499999999999986
   253   1      7.6999999999999886      48.124999999999993      38.499999999999986
   254   1      7.6999999999999886       50.04999999999999      36.574999999999989
   255   1      5.7749999999999915      48.124999999999993       40.42499999999999
   256   1      5.7749999999999915       50.04999999999999      42.349999999999987
   257   1      7.6999999999999886      48.124999999999993      42.349999999999987
   258   1      7.6999999999999886       50.04999999999999       40.42499999999999
   259   1      5.7749999999999915      48.124999999999993      44.274999999999991
   260   1      5.7749999999999915       50.04999999999999      46.199999999999989
   261   1      7.6999999999999886      48.124999999999993      46.199999999999989
   262   1      7.6999999999999886       50.04999999999999      44.274999999999991
   263   1      5.7749999999999915      48.124999999999993      48.124999999999993
   264   1      5.7749999999999915       50.04999999999999       50.04999999999999
   265   1      7.6999999999999886      48.124999999999993       50.04999999999999
   266   1      7.6999999999999886       50.04999999999999      48.124999999999993
   267   1      5.7749999999999915      48.124999999999993      51.974999999999987
   268   1      5.7749999999999915       50.04999999999999      53.899999999999984
   269   1      7.6999999999999886      48.124999999999993      53.899999999999984
   270   1      7.6999999999999886       50.04999999999999      51.974999999999987
   271   1      5.7749999999999915      48.124999999999993      55.824999999999982
   272   1      5.7749999999999915       50.04999999999999      57.749999999999979
   273   1      7.6999999999999886      48.124999999999993      57.749999999999979
   274   1      7.6999999999999886       50.04999999999999      55.824999999999982
   275   1      5.7749999999999915      48.124999999999993      59.674999999999983
   276   1      5.7749999999999915       50.04999999999999       61.59999999999998
   277   1      7.6999999999999886      48.124999999999993       61.59999999999998
   278   1      7.6999999999999886       50.04999999999999      59.674999999999983
   279   1      5.7749999999999915      48.124999999999993      63.524999999999991
   280   1      5.7749999999999915       50.04999999999999      65.449999999999989
   281   1      7.6999999999999886      48.124999999999993      65.449999999999989
   282   1      7.6999999999999886       50.04999999999999      63.524999999999991
   283   1      5.7749999999999915      48.124999999999993      67.374999999999986
   284   1      7.6999999999999886      48.124999999999993      69.299999999999983
   285   1      7.6999999999999886       50.04999999999999      67.374999999999986
   286   1      7.6999999999999886      48.124999999999993      73.149999999999991
   287   1      7.6999999999999886       50.04999999999999      71.224999999999994
   288   1      7.6999999999999886      51.974999999999987      26.949999999999989
   289   1      7.6999999999999886      51.974999999999987      30.799999999999986
   290   1      7.6999999999999886      53.899999999999984      28.874999999999989
   291   1      5.7749999999999915      51.974999999999987       32.72499999999998
   292   1      5.7749999999999915      53.899999999999984      34.649999999999977
   293   1      7.6999999999999886      51.974999999999987      34.649999999999977
   294   1      7.6999999999999886      53.899999999999984       32.72499999999998
   295   1      5.7749999999999915      51.974999999999987      36.574999999999989
   296   1      5.7749999999999915      53.899999999999984      38.499999999999986
   297   1      7.6999999999999886      51.974999999999987      38.499999999999986
   298   1      7.6999999999999886      53.899999999999984      36.574999999999989
   299   1      5.7749999999999915      51.974999999999987       40.42499999999999
   300   1      5.7749999999999915      53.899999999999984      42.349999999999987
   301   1      7.6999999999999886      51.974999999999987      42.349999999999987
   302   1      7.6999999999999886      53.899999999999984       40.42499999999999
   303   1      5.7749999999999915      51.974999999999987      44.274999999999991
   304   1      5.7749999999999915      53.899999999999984      46.199999999999989
   305   1      7.6999999999999886      51.974999999999987      46.199999999999989
   306   1      7.6999999999999886      53.899999999999984      44.274999999999991
   307   1      5.7749999999999915      51.974999999999987      48.124999999999993
   308   1      5.7749999999999915      53.899999999999984       50.04999999999999
   309   1      7.6999999999999886      51.974999999999987       50.04999999999999
   310   1      7.6999999999999886      53.899999999999984      48.124999999999993
   311   1      5.7749999999999915      51.974999999999987      51.974999999999987
   312   1      5.7749999999999915      53.899999999999984      53.899999999999984
   313   1      7.6999999999999886      51.974999999999987      53.899999999999984
   314   1      7.6999999999999886      53.899999999999984      51.974999999999987
   315   1      5.7749999999999915      51.974999999999987      55.824999999999982
   316   1      5.7749999999999915      53.899999999999984      57.749999999999979
   317   1      7.6999999999999886      51.974999999999987      57.749999999999979
   318   1      7.6999999999999886      53.899999999999984      55.824999999999982
   319   1      5.7749999999999915      51.974999999999987      59.674999999999983
   320   1      5.7749999999999915      53.899999999999984       61.59999999999998
   321   1      7.6999999999999886      51.974999999999987       61.59999999999998
   322   1      7.6999999999999886      53.899999999999984      59.674999999999983
   323   1      5.7749999999999915      51.974999999999987      63.524999999999991
   324   1      7.6999999999999886      51.974999999999987      65.449999999999989
   325   1      7.6999999999999886      53.899999999999984      63.524999999999991
   326   1      7.6999999999999886      51.974999999999987      69.299999999999983
   327   1      7.6999999999999886      53.899999999999984      67.374999999999986
   328   1      7.6999999999999886      55.824999999999982      30.799999999999986
   329   1      7.6999999999999886      55.824999999999982      34.649999999999977
   330   1      7.6999999999999886      57.749999999999979       32.72499999999998
   331   1      5.7749999999999915      55.824999999999982      36.574999999999989
   332   1      5.7749999999999915      57.749999999999979      38.499999999999986
   333   1      7.6999999999999886      55.824999999999982      38.499999999999986
   334   1      7.6999999999999886      57.749999999999979      36.574999999999989
   335   1      5.7749999999999915      55.824999999999982       40.42499999999999
   336   1      5.7749999999999915      57.749999999999979      42.349999999999987
   337   1      7.6999999999999886      55.824999999999982      42.349999999999987
   338   1      7.6999999999999886      57.749999999999979       40.42499999999999
   339   1      5.7749999999999915      55.824999999999982      44.274999999999991
   340   1      5.7749999999999915      57.749999999999979      46.199999999999989
   341   1      7.6999999999999886      55.824999999999982      46.199999999999989
   342   1      7.6999999999999886      57.749999999999979      44.274999999999991
   343   1      5.7749999999999915      55.824999999999982      48.124999999999993
   344   1      5.7749999999999915      57.749999999999979       50.04999999999999
   345   1      7.6999999999999886      55.824999999999982       50.04999999999999
   346   1      7.6999999999999886      57.749999999999979      48.124999999999993
   347   1      5.7749999999999915      55.824999999999982      51.974999999999987
   348   1      5.7749999999999915      57.749999999999979      53.899999999999984
   349   1      7.6999999999999886      55.824999999999982      53.899999999999984
   350   1      7.6999999999999886      57.749999999999979      51.974999999999987
   351   1      5.7749999999999915      55.824999999999982      55.824999999999982
   352   1      5.7749999999999915      57.749999999999979      57.749999999999979
   353   1      7.6999999999999886      55.824999999999982      57.749999999999979
   354   1      7.6999999999999886      57.749999999999979      55.824999999999982
   355   1      5.7749999999999915      55.824999999999982      59.674999999999983
   356   1      7.6999999999999886      55.824999999999982       61.59999999999998
   357   1      7.6999999999999886      57.749999999999979      59.674999999999983
   358   1      7.6999999999999886      55.824999999999982      65.449999999999989