model_files/CuNi/CuNi_30000/CuNi_521/CuNi_521_fcc_30329_temp.data (written by ASE) 

30329 	 atoms 
2  atom types
0.0                      91  xlo xhi
0.0                      91  ylo yhi
0.0                      91  zlo zhi


Atoms 

     1   1                       0      42.792000000000002       44.57500000000001
     2   1                       0       44.57500000000001      42.792000000000002
     3   1                       0       44.57500000000001      46.358000000000011
     4   1                       0      46.358000000000011       44.57500000000001
     5   1      3.5660000000000029      33.877000000000002      42.792000000000002
     6   1      3.5660000000000029      35.660000000000011      41.009000000000007
     7   1      3.5660000000000029      33.877000000000002      46.358000000000011
     8   1      3.5660000000000029      35.660000000000011       44.57500000000001
     9   1      3.5660000000000029      35.660000000000011      48.141000000000012
    10   1      3.5660000000000029      37.443000000000005      39.226000000000013
    11   1      3.5660000000000029      39.226000000000013      37.443000000000005
    12   1      1.7830000000000015      39.226000000000013      42.792000000000002
    13   1      3.5660000000000029      37.443000000000005      42.792000000000002
    14   1      3.5660000000000029      39.226000000000013      41.009000000000007
    15   1      1.7830000000000015      37.443000000000005       44.57500000000001
    16   1      1.7830000000000015      39.226000000000013      46.358000000000011
    17   1      3.5660000000000029      37.443000000000005      46.358000000000011
    18   1      3.5660000000000029      39.226000000000013       44.57500000000001
    19   1      3.5660000000000029      37.443000000000005      49.924000000000007
    20   1      3.5660000000000029      39.226000000000013      48.141000000000012
    21   1      3.5660000000000029      39.226000000000013      51.707000000000008
    22   1      3.5660000000000029      41.009000000000007      35.660000000000011
    23   1      3.5660000000000029      42.792000000000002      33.877000000000002
    24   1      1.7830000000000015      42.792000000000002      39.226000000000013
    25   1      3.5660000000000029      41.009000000000007      39.226000000000013
    26   1      3.5660000000000029      42.792000000000002      37.443000000000005
    27   1      1.7830000000000015      41.009000000000007      41.009000000000007
    28   1      1.7830000000000015      42.792000000000002      42.792000000000002
    29   1      3.5660000000000029      41.009000000000007      42.792000000000002
    30   1      3.5660000000000029      42.792000000000002      41.009000000000007
    31   1      1.7830000000000015      41.009000000000007       44.57500000000001
    32   1      1.7830000000000015      42.792000000000002      46.358000000000011
    33   1      3.5660000000000029      41.009000000000007      46.358000000000011
    34   1      3.5660000000000029      42.792000000000002       44.57500000000001
    35   1      1.7830000000000015      41.009000000000007      48.141000000000012
    36   1      1.7830000000000015      42.792000000000002      49.924000000000007
    37   1      3.5660000000000029      41.009000000000007      49.924000000000007
    38   1      3.5660000000000029      42.792000000000002      48.141000000000012
    39   1      3.5660000000000029      41.009000000000007      53.490000000000009
    40   1      3.5660000000000029      42.792000000000002      51.707000000000008
    41   1      3.5660000000000029      42.792000000000002       55.27300000000001
    42   1      3.5660000000000029       44.57500000000001      35.660000000000011
    43   1      3.5660000000000029      46.358000000000011      33.877000000000002
    44   1      1.7830000000000015       44.57500000000001      37.443000000000005
    45   1      1.7830000000000015      46.358000000000011      39.226000000000013
    46   1      3.5660000000000029       44.57500000000001      39.226000000000013
    47   1      3.5660000000000029      46.358000000000011      37.443000000000005
    48   1      1.7830000000000015       44.57500000000001      41.009000000000007
    49   1      1.7830000000000015      46.358000000000011      42.792000000000002
    50   1      3.5660000000000029       44.57500000000001      42.792000000000002
    51   1      3.5660000000000029      46.358000000000011      41.009000000000007
    52   1      1.7830000000000015       44.57500000000001       44.57500000000001
    53   1      1.7830000000000015      46.358000000000011      46.358000000000011
    54   1      3.5660000000000029       44.57500000000001      46.358000000000011
    55   1      3.5660000000000029      46.358000000000011       44.57500000000001
    56   1      1.7830000000000015       44.57500000000001      48.141000000000012
    57   1      1.7830000000000015      46.358000000000011      49.924000000000007
    58   1      3.5660000000000029       44.57500000000001      49.924000000000007
    59   1      3.5660000000000029      46.358000000000011      48.141000000000012
    60   1      1.7830000000000015       44.57500000000001      51.707000000000008
    61   1      3.5660000000000029       44.57500000000001      53.490000000000009
    62   1      3.5660000000000029      46.358000000000011      51.707000000000008
    63   1      3.5660000000000029      46.358000000000011       55.27300000000001
    64   1      3.5660000000000029      48.141000000000012      35.660000000000011
    65   1      3.5660000000000029      48.141000000000012      39.226000000000013
    66   1      3.5660000000000029      49.924000000000007      37.443000000000005
    67   1      1.7830000000000015      48.141000000000012      41.009000000000007
    68   1      1.7830000000000015      49.924000000000007      42.792000000000002
    69   1      3.5660000000000029      48.141000000000012      42.792000000000002
    70   1      3.5660000000000029      49.924000000000007      41.009000000000007
    71   1      1.7830000000000015      48.141000000000012       44.57500000000001
    72   1      1.7830000000000015      49.924000000000007      46.358000000000011
    73   1      3.5660000000000029      48.141000000000012      46.358000000000011
    74   1      3.5660000000000029      49.924000000000007       44.57500000000001
    75   1      1.7830000000000015      48.141000000000012      48.141000000000012
    76   1      3.5660000000000029      48.141000000000012      49.924000000000007
    77   1      3.5660000000000029      49.924000000000007      48.141000000000012
    78   1      3.5660000000000029      48.141000000000012      53.490000000000009
    79   1      3.5660000000000029      49.924000000000007      51.707000000000008
    80   1      3.5660000000000029      51.707000000000008      39.226000000000013
    81   1      3.5660000000000029      51.707000000000008      42.792000000000002
    82   1      3.5660000000000029      53.490000000000009      41.009000000000007
    83   1      1.7830000000000015      51.707000000000008       44.57500000000001
    84   1      3.5660000000000029      51.707000000000008      46.358000000000011
    85   1      3.5660000000000029      53.490000000000009       44.57500000000001
    86   1      3.5660000000000029      51.707000000000008      49.924000000000007
    87   1      3.5660000000000029      53.490000000000009      48.141000000000012
    88   1      3.5660000000000029       55.27300000000001      42.792000000000002
    89   1      3.5660000000000029       55.27300000000001      46.358000000000011
    90   1      7.1319999999999979      24.962000000000003       44.57500000000001
    91   1      7.1319999999999979      26.745000000000005      39.226000000000013
    92   1      7.1319999999999979      28.528000000000002      37.443000000000005
    93   1      7.1319999999999979      26.745000000000005      42.792000000000002
    94   1      7.1319999999999979      28.528000000000002      41.009000000000007
    95   1      7.1319999999999979      26.745000000000005      46.358000000000011
    96   1      7.1319999999999979      28.528000000000002       44.57500000000001
    97   1      7.1319999999999979      26.745000000000005      49.924000000000007
    98   1      7.1319999999999979      28.528000000000002      48.141000000000012
    99   1      7.1319999999999979      28.528000000000002      51.707000000000008
   100   1      7.1319999999999979      30.311000000000003      32.094000000000008
   101   1      7.1319999999999979      32.094000000000008      30.311000000000003
   102   1      7.1319999999999979      30.311000000000003      35.660000000000011
   103   1      7.1319999999999979      32.094000000000008      33.877000000000002
   104   1      5.3489999999999966      32.094000000000008      39.226000000000013
   105   1      7.1319999999999979      30.311000000000003      39.226000000000013
   106   1      7.1319999999999979      32.094000000000008      37.443000000000005
   107   1      5.3489999999999966      30.311000000000003      41.009000000000007
   108   1      5.3489999999999966      32.094000000000008      42.792000000000002
   109   1      7.1319999999999979      30.311000000000003      42.792000000000002
   110   1      7.1319999999999979      32.094000000000008      41.009000000000007
   111   1      5.3489999999999966      30.311000000000003       44.57500000000001
   112   1      5.3489999999999966      32.094000000000008      46.358000000000011
   113   1      7.1319999999999979      30.311000000000003      46.358000000000011
   114   1      7.1319999999999979      32.094000000000008       44.57500000000001
   115   1      5.3489999999999966      30.311000000000003      48.141000000000012
   116   1      5.3489999999999966      32.094000000000008      49.924000000000007
   117   1      7.1319999999999979      30.311000000000003      49.924000000000007
   118   1      7.1319999999999979      32.094000000000008      48.141000000000012
   119   1      7.1319999999999979      30.311000000000003      53.490000000000009
   120   1      7.1319999999999979      32.094000000000008      51.707000000000008
   121   1      7.1319999999999979      30.311000000000003      57.056000000000004
   122   1      7.1319999999999979      32.094000000000008       55.27300000000001
   123   1      7.1319999999999979      32.094000000000008      58.839000000000013
   124   1      7.1319999999999979      33.877000000000002      32.094000000000008
   125   1      7.1319999999999979      35.660000000000011      30.311000000000003
   126   1      5.3489999999999966      33.877000000000002      33.877000000000002
   127   1      5.3489999999999966      35.660000000000011      35.660000000000011
   128   1      7.1319999999999979      33.877000000000002      35.660000000000011
   129   1      7.1319999999999979      35.660000000000011      33.877000000000002
   130   1      5.3489999999999966      33.877000000000002      37.443000000000005
   131   1      5.3489999999999966      35.660000000000011      39.226000000000013
   132   1      7.1319999999999979      33.877000000000002      39.226000000000013
   133   1      7.1319999999999979      35.660000000000011      37.443000000000005
   134   1      5.3489999999999966      33.877000000000002      41.009000000000007
   135   1      5.3489999999999966      35.660000000000011      42.792000000000002
   136   1      7.1319999999999979      33.877000000000002      42.792000000000002
   137   1      7.1319999999999979      35.660000000000011      41.009000000000007
   138   1      5.3489999999999966      33.877000000000002       44.57500000000001
   139   1      5.3489999999999966      35.660000000000011      46.358000000000011
   140   1      7.1319999999999979      33.877000000000002      46.358000000000011
   141   1      7.1319999999999979      35.660000000000011       44.57500000000001
   142   1      5.3489999999999966      33.877000000000002      48.141000000000012
   143   1      5.3489999999999966      35.660000000000011      49.924000000000007
   144   1      7.1319999999999979      33.877000000000002      49.924000000000007
   145   1      7.1319999999999979      35.660000000000011      48.141000000000012
   146   1      5.3489999999999966      33.877000000000002      51.707000000000008
   147   1      5.3489999999999966      35.660000000000011      53.490000000000009
   148   1      7.1319999999999979      33.877000000000002      53.490000000000009
   149   1      7.1319999999999979      35.660000000000011      51.707000000000008
   150   1      5.3489999999999966      33.877000000000002       55.27300000000001
   151   1      7.1319999999999979      33.877000000000002      57.056000000000004
   152   1      7.1319999999999979      35.660000000000011       55.27300000000001
   153   1      7.1319999999999979      35.660000000000011      58.839000000000013
   154   1      7.1319999999999979      37.443000000000005      28.528000000000002
   155   1      7.1319999999999979      39.226000000000013      26.745000000000005
   156   1      5.3489999999999966      39.226000000000013      32.094000000000008
   157   1      7.1319999999999979      37.443000000000005      32.094000000000008
   158   1      7.1319999999999979      39.226000000000013      30.311000000000003
   159   1      5.3489999999999966      37.443000000000005      33.877000000000002
   160   1      5.3489999999999966      39.226000000000013      35.660000000000011
   161   1      7.1319999999999979      37.443000000000005      35.660000000000011
   162   1      7.1319999999999979      39.226000000000013      33.877000000000002
   163   1      5.3489999999999966      37.443000000000005      37.443000000000005
   164   1      5.3489999999999966      39.226000000000013      39.226000000000013
   165   1      7.1319999999999979      37.443000000000005      39.226000000000013
   166   1      7.1319999999999979      39.226000000000013      37.443000000000005
   167   1      5.3489999999999966      37.443000000000005      41.009000000000007
   168   1      5.3489999999999966      39.226000000000013      42.792000000000002
   169   1      7.1319999999999979      37.443000000000005      42.792000000000002
   170   1      7.1319999999999979      39.226000000000013      41.009000000000007
   171   1      5.3489999999999966      37.443000000000005       44.57500000000001
   172   1      5.3489999999999966      39.226000000000013      46.358000000000011
   173   1      7.1319999999999979      37.443000000000005      46.358000000000011
   174   1      7.1319999999999979      39.226000000000013       44.57500000000001
   175   1      5.3489999999999966      37.443000000000005      48.141000000000012
   176   1      5.3489999999999966      39.226000000000013      49.924000000000007
   177   1      7.1319999999999979      37.443000000000005      49.924000000000007
   178   1      7.1319999999999979      39.226000000000013      48.141000000000012
   179   1      5.3489999999999966      37.443000000000005      51.707000000000008
   180   1      5.3489999999999966      39.226000000000013      53.490000000000009
   181   1      7.1319999999999979      37.443000000000005      53.490000000000009
   182   1      7.1319999999999979      39.226000000000013      51.707000000000008
   183   1      5.3489999999999966      37.443000000000005       55.27300000000001
   184   1      5.3489999999999966      39.226000000000013      57.056000000000004
   185   1      7.1319999999999979      37.443000000000005      57.056000000000004
   186   1      7.1319999999999979      39.226000000000013       55.27300000000001
   187   1      7.1319999999999979      37.443000000000005      60.622000000000014
   188   1      7.1319999999999979      39.226000000000013      58.839000000000013
   189   1      7.1319999999999979      39.226000000000013      62.405000000000001
   190   1      7.1319999999999979      41.009000000000007      28.528000000000002
   191   1      7.1319999999999979      42.792000000000002      26.745000000000005
   192   1      5.3489999999999966      41.009000000000007      30.311000000000003
   193   1      5.3489999999999966      42.792000000000002      32.094000000000008
   194   1      7.1319999999999979      41.009000000000007      32.094000000000008
   195   1      7.1319999999999979      42.792000000000002      30.311000000000003
   196   1      5.3489999999999966      41.009000000000007      33.877000000000002
   197   1      5.3489999999999966      42.792000000000002      35.660000000000011
   198   1      7.1319999999999979      41.009000000000007      35.660000000000011
   199   1      7.1319999999999979      42.792000000000002      33.877000000000002
   200   1      5.3489999999999966      41.009000000000007      37.443000000000005
   201   1      5.3489999999999966      42.792000000000002      39.226000000000013
   202   1      7.1319999999999979      41.009000000000007      39.226000000000013
   203   1      7.1319999999999979      42.792000000000002      37.443000000000005
   204   1      5.3489999999999966      41.009000000000007      41.009000000000007
   205   1      5.3489999999999966      42.792000000000002      42.792000000000002
   206   1      7.1319999999999979      41.009000000000007      42.792000000000002
   207   1      7.1319999999999979      42.792000000000002      41.009000000000007
   208   1      5.3489999999999966      41.009000000000007       44.57500000000001
   209   1      5.3489999999999966      42.792000000000002      46.358000000000011
   210   1      7.1319999999999979      41.009000000000007      46.358000000000011
   211   1      7.1319999999999979      42.792000000000002       44.57500000000001
   212   1      5.3489999999999966      41.009000000000007      48.141000000000012
   213   1      5.3489999999999966      42.792000000000002      49.924000000000007
   214   1      7.1319999999999979      41.009000000000007      49.924000000000007
   215   1      7.1319999999999979      42.792000000000002      48.141000000000012
   216   1      5.3489999999999966      41.009000000000007      51.707000000000008
   217   1      5.3489999999999966      42.792000000000002      53.490000000000009
   218   1      7.1319999999999979      41.009000000000007      53.490000000000009
   219   1      7.1319999999999979      42.792000000000002      51.707000000000008
   220   1      5.3489999999999966      41.009000000000007       55.27300000000001
   221   1      5.3489999999999966      42.792000000000002      57.056000000000004
   222   1      7.1319999999999979      41.009000000000007      57.056000000000004
   223   1      7.1319999999999979      42.792000000000002       55.27300000000001
   224   1      5.3489999999999966      41.009000000000007      58.839000000000013
   225   1      7.1319999999999979      41.009000000000007      60.622000000000014
   226   1      7.1319999999999979      42.792000000000002      58.839000000000013
   227   1      7.1319999999999979      42.792000000000002      62.405000000000001
   228   1      7.1319999999999979       44.57500000000001      24.962000000000003
   229   1      7.1319999999999979       44.57500000000001      28.528000000000002
   230   1      7.1319999999999979      46.358000000000011      26.745000000000005
   231   1      5.3489999999999966       44.57500000000001      30.311000000000003
   232   1      5.3489999999999966      46.358000000000011      32.094000000000008
   233   1      7.1319999999999979       44.57500000000001      32.094000000000008
   234   1      7.1319999999999979      46.358000000000011      30.311000000000003
   235   1      5.3489999999999966       44.57500000000001      33.877000000000002
   236   1      5.3489999999999966      46.358000000000011      35.660000000000011
   237   1      7.1319999999999979       44.57500000000001      35.660000000000011
   238   1      7.1319999999999979      46.358000000000011      33.877000000000002
   239   1      5.3489999999999966       44.57500000000001      37.443000000000005
   240   1      5.3489999999999966      46.358000000000011      39.226000000000013
   241   1      7.1319999999999979       44.57500000000001      39.226000000000013
   242   1      7.1319999999999979      46.358000000000011      37.443000000000005
   243   1      5.3489999999999966       44.57500000000001      41.009000000000007
   244   1      5.3489999999999966      46.358000000000011      42.792000000000002
   245   1      7.1319999999999979       44.57500000000001      42.792000000000002
   246   1      7.1319999999999979      46.358000000000011      41.009000000000007
   247   1      5.3489999999999966       44.57500000000001       44.57500000000001
   248   1      5.3489999999999966      46.358000000000011      46.358000000000011
   249   1      7.1319999999999979       44.57500000000001      46.358000000000011
   250   1      7.1319999999999979      46.358000000000011       44.57500000000001
   251   1      5.3489999999999966       44.57500000000001      48.141000000000012
   252   1      5.3489999999999966      46.358000000000011      49.924000000000007
   253   1      7.1319999999999979       44.57500000000001      49.924000000000007
   254   1      7.1319999999999979      46.358000000000011      48.141000000000012
   255   1      5.3489999999999966       44.57500000000001      51.707000000000008
   256   1      5.3489999999999966      46.358000000000011      53.490000000000009
   257   1      7.1319999999999979       44.57500000000001      53.490000000000009
   258   1      7.1319999999999979      46.358000000000011      51.707000000000008
   259   1      5.3489999999999966       44.57500000000001       55.27300000000001
   260   1      5.3489999999999966      46.358000000000011      57.056000000000004
   261   1      7.1319999999999979       44.57500000000001      57.056000000000004
   262   1      7.1319999999999979      46.358000000000011       55.27300000000001
   263   1      5.3489999999999966       44.57500000000001      58.839000000000013
   264   1      7.1319999999999979       44.57500000000001      60.622000000000014
   265   1      7.1319999999999979      46.358000000000011      58.839000000000013
   266   1      7.1319999999999979       44.57500000000001      64.188000000000017
   267   1      7.1319999999999979      46.358000000000011      62.405000000000001
   268   1      7.1319999999999979      48.141000000000012      28.528000000000002
   269   1      7.1319999999999979      49.924000000000007      26.745000000000005
   270   1      5.3489999999999966      48.141000000000012      30.311000000000003
   271   1      5.3489999999999966      49.924000000000007      32.094000000000008
   272   1      7.1319999999999979      48.141000000000012      32.094000000000008
   273   1      7.1319999999999979      49.924000000000007      30.311000000000003
   274   1      5.3489999999999966      48.141000000000012      33.877000000000002
   275   1      5.3489999999999966      49.924000000000007      35.660000000000011
   276   1      7.1319999999999979      48.141000000000012      35.660000000000011
   277   1      7.1319999999999979      49.924000000000007      33.877000000000002
   278   1      5.3489999999999966      48.141000000000012      37.443000000000005
   279   1      5.3489999999999966      49.924000000000007      39.226000000000013
   280   1      7.1319999999999979      48.141000000000012      39.226000000000013
   281   1      7.1319999999999979      49.924000000000007      37.443000000000005
   282   1      5.3489999999999966      48.141000000000012      41.009000000000007
   283   1      5.3489999999999966      49.924000000000007      42.792000000000002
   284   1      7.1319999999999979      48.141000000000012      42.792000000000002
   285   1      7.1319999999999979      49.924000000000007      41.009000000000007
   286   1      5.3489999999999966      48.141000000000012       44.57500000000001
   287   1      5.3489999999999966      49.924000000000007      46.358000000000011
   288   1      7.1319999999999979      48.141000000000012      46.358000000000011
   289   1      7.1319999999999979      49.924000000000007       44.57500000000001
   290   1      5.3489999999999966      48.141000000000012      48.141000000000012
   291   1      5.3489999999999966      49.924000000000007      49.924000000000007
   292   1      7.1319999999999979      48.141000000000012      49.924000000000007
   293   1      7.1319999999999979      49.924000000000007      48.141000000000012
   294   1      5.3489999999999966      48.141000000000012      51.707000000000008
   295   1      5.3489999999999966      49.924000000000007      53.490000000000009
   296   1      7.1319999999999979      48.141000000000012      53.490000000000009
   297   1      7.1319999999999979      49.924000000000007      51.707000000000008
   298   1      5.3489999999999966      48.141000000000012       55.27300000000001
   299   1      5.3489999999999966      49.924000000000007      57.056000000000004
   300   1      7.1319999999999979      48.141000000000012      57.056000000000004
   301   1      7.1319999999999979      49.924000000000007       55.27300000000001
   302   1      5.3489999999999966      48.141000000000012      58.839000000000013
   303   1      7.1319999999999979      48.141000000000012      60.622000000000014
   304   1      7.1319999999999979      49.924000000000007      58.839000000000013
   305   1      7.1319999999999979      49.924000000000007      62.405000000000001
   306   1      7.1319999999999979      51.707000000000008      28.528000000000002
   307   1      7.1319999999999979      51.707000000000008      32.094000000000008
   308   1      7.1319999999999979      53.490000000000009      30.311000000000003
   309   1      5.3489999999999966      51.707000000000008      33.877000000000002
   310   1      5.3489999999999966      53.490000000000009      35.660000000000011
   311   1      7.1319999999999979      51.707000000000008      35.660000000000011
   312   1      7.1319999999999979      53.490000000000009      33.877000000000002
   313   1      5.3489999999999966      51.707000000000008      37.443000000000005
   314   1      5.3489999999999966      53.490000000000009      39.226000000000013
   315   1      7.1319999999999979      51.707000000000008      39.226000000000013
   316   1      7.1319999999999979      53.490000000000009      37.443000000000005
   317   1      5.3489999999999966      51.707000000000008      41.009000000000007
   318   1      5.3489999999999966      53.490000000000009      42.792000000000002
   319   1      7.1319999999999979      51.707000000000008      42.792000000000002
   320   1      7.1319999999999979      53.490000000000009      41.009000000000007
   321   1      5.3489999999999966      51.707000000000008       44.57500000000001
   322   1      5.3489999999999966      53.490000000000009      46.358000000000011
   323   1      7.1319999999999979      51.707000000000008      46.358000000000011
   324   1      7.1319999999999979      53.490000000000009       44.57500000000001
   325   1      5.3489999999999966      51.707000000000008      48.141000000000012
   326   1      5.3489999999999966      53.490000000000009      49.924000000000007
   327   1      7.1319999999999979      51.707000000000008      49.924000000000007
   328   1      7.1319999999999979      53.490000000000009      48.141000000000012
   329   1      5.3489999999999966      51.707000000000008      51.707000000000008
   330   1      5.3489999999999966      53.490000000000009      53.490000000000009
   331   1      7.1319999999999979      51.707000000000008      53.490000000000009
   332   1      7.1319999999999979      53.490000000000009      51.707000000000008
   333   1      5.3489999999999966      51.707000000000008       55.27300000000001
   334   1      7.1319999999999979      51.707000000000008      57.056000000000004
   335   1      7.1319999999999979      53.490000000000009       55.27300000000001
   336   1      7.1319999999999979      51.707000000000008      60.622000000000014
   337   1      7.1319999999999979      53.490000000000009      58.839000000000013
   338   1      7.1319999999999979       55.27300000000001      32.094000000000008
   339   1      7.1319999999999979      57.056000000000004      30.311000000000003
   340   1      5.3489999999999966       55.27300000000001      33.877000000000002
   341   1      7.1319999999999979       55.27300000000001      35.660000000000011
   342   1      7.1319999999999979      57.056000000000004      33.877000000000002
   343   1      5.3489999999999966       55.27300000000001      37.443000000000005
   344   1      5.3489999999999966      57.056000000000004      39.226000000000013
   345   1      7.1319999999999979       55.27300000000001      39.226000000000013
   346   1      7.1319999999999979      57.056000000000004      37.443000000000005
   347   1      5.3489999999999966       55.27300000000001      41.009000000000007
   348   1      5.3489999999999966      57.056000000000004      42.792000000000002
   349   1      7.1319999999999979       55.27300000000001      42.792000000000002
   350   1      7.1319999999999979      57.056000000000004      41.009000000000007
   351   1      5.3489999999999966       55.27300000000001       44.57500000000001
   352   1      5.3489999999999966      57.056000000000004      46.358000000000011
   353   1      7.1319999999999979       55.27300000000001      46.358000000000011
   354   1      7.1319999999999979      57.056000000000004       44.57500000000001
   355   1      5.3489999999999966       55.27300000000001      48.141000000000012
   356   1      5.3489999999999966      57.056000000000004      49.924000000000007
   357   1      7.1319999999999979       55.27300000000001      49.924000000000007
   358   1      7.1319999999999979      57.056000000000004      48.141000000000012