model_files/PtCo/PtCo_30000/PtCo_421/PtCo_421_fcc_30423_temp.data (written by ASE) 

30423 	 atoms 
2  atom types
0.0                      94  xlo xhi
0.0                      94  ylo yhi
0.0                      94  zlo zhi


Atoms 

     1   1      1.8249999999999957      41.974999999999994       43.79999999999999
     2   1      1.8249999999999957      41.974999999999994      47.449999999999989
     3   1      1.8249999999999957      41.974999999999994      51.100000000000001
     4   1      1.8249999999999957       43.79999999999999      41.974999999999994
     5   1      93.999999999999986      45.624999999999993      45.624999999999993
     6   1      1.8249999999999957       43.79999999999999      45.624999999999993
     7   1      1.8249999999999957      45.624999999999993       43.79999999999999
     8   1      93.999999999999986       43.79999999999999      47.449999999999989
     9   1      93.999999999999986      45.624999999999993      49.274999999999991
    10   1      1.8249999999999957       43.79999999999999      49.274999999999991
    11   1      1.8249999999999957      45.624999999999993      47.449999999999989
    12   1      1.8249999999999957       43.79999999999999       52.92499999999999
    13   1      1.8249999999999957      45.624999999999993      51.100000000000001
    14   1      1.8249999999999957      47.449999999999989      41.974999999999994
    15   1      93.999999999999986      47.449999999999989       43.79999999999999
    16   1      93.999999999999986      49.274999999999991      45.624999999999993
    17   1      1.8249999999999957      47.449999999999989      45.624999999999993
    18   1      1.8249999999999957      49.274999999999991       43.79999999999999
    19   1      93.999999999999986      47.449999999999989      47.449999999999989
    20   1      93.999999999999986      49.274999999999991      49.274999999999991
    21   1      1.8249999999999957      47.449999999999989      49.274999999999991
    22   1      1.8249999999999957      49.274999999999991      47.449999999999989
    23   1      93.999999999999986      47.449999999999989      51.100000000000001
    24   1      1.8249999999999957      47.449999999999989       52.92499999999999
    25   1      1.8249999999999957      49.274999999999991      51.100000000000001
    26   1      1.8249999999999957      51.100000000000001      41.974999999999994
    27   1      1.8249999999999957      51.100000000000001      45.624999999999993
    28   1      1.8249999999999957       52.92499999999999       43.79999999999999
    29   1      93.999999999999986      51.100000000000001      47.449999999999989
    30   1      1.8249999999999957      51.100000000000001      49.274999999999991
    31   1      1.8249999999999957       52.92499999999999      47.449999999999989
    32   1      1.8249999999999957      51.100000000000001       52.92499999999999
    33   1      1.8249999999999957       52.92499999999999      51.100000000000001
    34   1      5.4749999999999943      34.674999999999997       43.79999999999999
    35   1      5.4749999999999943      34.674999999999997      47.449999999999989
    36   1      5.4749999999999943      34.674999999999997      51.100000000000001
    37   1      5.4749999999999943      36.499999999999993      41.974999999999994
    38   1      5.4749999999999943      38.324999999999996      40.149999999999991
    39   1      3.6499999999999915      38.324999999999996      45.624999999999993
    40   1      5.4749999999999943      36.499999999999993      45.624999999999993
    41   1      5.4749999999999943      38.324999999999996       43.79999999999999
    42   1      3.6499999999999915      36.499999999999993      47.449999999999989
    43   1      3.6499999999999915      38.324999999999996      49.274999999999991
    44   1      5.4749999999999943      36.499999999999993      49.274999999999991
    45   1      5.4749999999999943      38.324999999999996      47.449999999999989
    46   1      5.4749999999999943      36.499999999999993       52.92499999999999
    47   1      5.4749999999999943      38.324999999999996      51.100000000000001
    48   1      5.4749999999999943      38.324999999999996      54.749999999999993
    49   1      5.4749999999999943      40.149999999999991      38.324999999999996
    50   1      5.4749999999999943      41.974999999999994      36.499999999999993
    51   1      3.6499999999999915      40.149999999999991      40.149999999999991
    52   1      3.6499999999999915      41.974999999999994      41.974999999999994
    53   1      5.4749999999999943      40.149999999999991      41.974999999999994
    54   1      5.4749999999999943      41.974999999999994      40.149999999999991
    55   1      3.6499999999999915      40.149999999999991       43.79999999999999
    56   1      3.6499999999999915      41.974999999999994      45.624999999999993
    57   1      5.4749999999999943      40.149999999999991      45.624999999999993
    58   1      5.4749999999999943      41.974999999999994       43.79999999999999
    59   1      3.6499999999999915      40.149999999999991      47.449999999999989
    60   1      3.6499999999999915      41.974999999999994      49.274999999999991
    61   1      5.4749999999999943      40.149999999999991      49.274999999999991
    62   1      5.4749999999999943      41.974999999999994      47.449999999999989
    63   1      3.6499999999999915      40.149999999999991      51.100000000000001
    64   1      3.6499999999999915      41.974999999999994       52.92499999999999
    65   1      5.4749999999999943      40.149999999999991       52.92499999999999
    66   1      5.4749999999999943      41.974999999999994      51.100000000000001
    67   1      3.6499999999999915      40.149999999999991      54.749999999999993
    68   1      5.4749999999999943      40.149999999999991      56.574999999999996
    69   1      5.4749999999999943      41.974999999999994      54.749999999999993
    70   1      5.4749999999999943      41.974999999999994      58.399999999999991
    71   1      5.4749999999999943       43.79999999999999      34.674999999999997
    72   1      3.6499999999999915      45.624999999999993      38.324999999999996
    73   1      5.4749999999999943       43.79999999999999      38.324999999999996
    74   1      5.4749999999999943      45.624999999999993      36.499999999999993
    75   1      3.6499999999999915       43.79999999999999      40.149999999999991
    76   1      3.6499999999999915      45.624999999999993      41.974999999999994
    77   1      5.4749999999999943       43.79999999999999      41.974999999999994
    78   1      5.4749999999999943      45.624999999999993      40.149999999999991
    79   1      3.6499999999999915       43.79999999999999       43.79999999999999
    80   1      3.6499999999999915      45.624999999999993      45.624999999999993
    81   1      5.4749999999999943       43.79999999999999      45.624999999999993
    82   1      5.4749999999999943      45.624999999999993       43.79999999999999
    83   1      3.6499999999999915       43.79999999999999      47.449999999999989
    84   1      3.6499999999999915      45.624999999999993      49.274999999999991
    85   1      5.4749999999999943       43.79999999999999      49.274999999999991
    86   1      5.4749999999999943      45.624999999999993      47.449999999999989
    87   1      3.6499999999999915       43.79999999999999      51.100000000000001
    88   1      3.6499999999999915      45.624999999999993       52.92499999999999
    89   1      5.4749999999999943       43.79999999999999       52.92499999999999
    90   1      5.4749999999999943      45.624999999999993      51.100000000000001
    91   1      3.6499999999999915       43.79999999999999      54.749999999999993
    92   1      3.6499999999999915      45.624999999999993      56.574999999999996
    93   1      5.4749999999999943       43.79999999999999      56.574999999999996
    94   1      5.4749999999999943      45.624999999999993      54.749999999999993
    95   1      5.4749999999999943       43.79999999999999      60.224999999999994
    96   1      5.4749999999999943      45.624999999999993      58.399999999999991
    97   1      5.4749999999999943      47.449999999999989      34.674999999999997
    98   1      3.6499999999999915      47.449999999999989      36.499999999999993
    99   1      3.6499999999999915      49.274999999999991      38.324999999999996
   100   1      5.4749999999999943      47.449999999999989      38.324999999999996
   101   1      5.4749999999999943      49.274999999999991      36.499999999999993
   102   1      3.6499999999999915      47.449999999999989      40.149999999999991
   103   1      3.6499999999999915      49.274999999999991      41.974999999999994
   104   1      5.4749999999999943      47.449999999999989      41.974999999999994
   105   1      5.4749999999999943      49.274999999999991      40.149999999999991
   106   1      3.6499999999999915      47.449999999999989       43.79999999999999
   107   1      3.6499999999999915      49.274999999999991      45.624999999999993
   108   1      5.4749999999999943      47.449999999999989      45.624999999999993
   109   1      5.4749999999999943      49.274999999999991       43.79999999999999
   110   1      3.6499999999999915      47.449999999999989      47.449999999999989
   111   1      3.6499999999999915      49.274999999999991      49.274999999999991
   112   1      5.4749999999999943      47.449999999999989      49.274999999999991
   113   1      5.4749999999999943      49.274999999999991      47.449999999999989
   114   1      3.6499999999999915      47.449999999999989      51.100000000000001
   115   1      3.6499999999999915      49.274999999999991       52.92499999999999
   116   1      5.4749999999999943      47.449999999999989       52.92499999999999
   117   1      5.4749999999999943      49.274999999999991      51.100000000000001
   118   1      3.6499999999999915      47.449999999999989      54.749999999999993
   119   1      3.6499999999999915      49.274999999999991      56.574999999999996
   120   1      5.4749999999999943      47.449999999999989      56.574999999999996
   121   1      5.4749999999999943      49.274999999999991      54.749999999999993
   122   1      3.6499999999999915      47.449999999999989      58.399999999999991
   123   1      5.4749999999999943      47.449999999999989      60.224999999999994
   124   1      5.4749999999999943      49.274999999999991      58.399999999999991
   125   1      5.4749999999999943      51.100000000000001      34.674999999999997
   126   1      5.4749999999999943      51.100000000000001      38.324999999999996
   127   1      5.4749999999999943       52.92499999999999      36.499999999999993
   128   1      3.6499999999999915      51.100000000000001      40.149999999999991
   129   1      3.6499999999999915       52.92499999999999      41.974999999999994
   130   1      5.4749999999999943      51.100000000000001      41.974999999999994
   131   1      5.4749999999999943       52.92499999999999      40.149999999999991
   132   1      3.6499999999999915      51.100000000000001       43.79999999999999
   133   1      3.6499999999999915       52.92499999999999      45.624999999999993
   134   1      5.4749999999999943      51.100000000000001      45.624999999999993
   135   1      5.4749999999999943       52.92499999999999       43.79999999999999
   136   1      3.6499999999999915      51.100000000000001      47.449999999999989
   137   1      3.6499999999999915       52.92499999999999      49.274999999999991
   138   1      5.4749999999999943      51.100000000000001      49.274999999999991
   139   1      5.4749999999999943       52.92499999999999      47.449999999999989
   140   1      3.6499999999999915      51.100000000000001      51.100000000000001
   141   1      3.6499999999999915       52.92499999999999       52.92499999999999
   142   1      5.4749999999999943      51.100000000000001       52.92499999999999
   143   1      5.4749999999999943       52.92499999999999      51.100000000000001
   144   1      3.6499999999999915      51.100000000000001      54.749999999999993
   145   1      5.4749999999999943      51.100000000000001      56.574999999999996
   146   1      5.4749999999999943       52.92499999999999      54.749999999999993
   147   1      5.4749999999999943      51.100000000000001      60.224999999999994
   148   1      5.4749999999999943       52.92499999999999      58.399999999999991
   149   1      5.4749999999999943      54.749999999999993      38.324999999999996
   150   1      3.6499999999999915      54.749999999999993      40.149999999999991
   151   1      5.4749999999999943      54.749999999999993      41.974999999999994
   152   1      5.4749999999999943      56.574999999999996      40.149999999999991
   153   1      3.6499999999999915      54.749999999999993       43.79999999999999
   154   1      3.6499999999999915      56.574999999999996      45.624999999999993
   155   1      5.4749999999999943      54.749999999999993      45.624999999999993
   156   1      5.4749999999999943      56.574999999999996       43.79999999999999
   157   1      3.6499999999999915      54.749999999999993      47.449999999999989
   158   1      3.6499999999999915      56.574999999999996      49.274999999999991
   159   1      5.4749999999999943      54.749999999999993      49.274999999999991
   160   1      5.4749999999999943      56.574999999999996      47.449999999999989
   161   1      3.6499999999999915      54.749999999999993      51.100000000000001
   162   1      5.4749999999999943      54.749999999999993       52.92499999999999
   163   1      5.4749999999999943      56.574999999999996      51.100000000000001
   164   1      3.6499999999999915      54.749999999999993      54.749999999999993
   165   1      5.4749999999999943      54.749999999999993      56.574999999999996
   166   1      5.4749999999999943      56.574999999999996      54.749999999999993
   167   1      5.4749999999999943      58.399999999999991      41.974999999999994
   168   1      5.4749999999999943      58.399999999999991      45.624999999999993
   169   1      5.4749999999999943      60.224999999999994       43.79999999999999
   170   1      3.6499999999999915      58.399999999999991      47.449999999999989
   171   1      5.4749999999999943      58.399999999999991      49.274999999999991
   172   1      5.4749999999999943      60.224999999999994      47.449999999999989
   173   1      5.4749999999999943      58.399999999999991       52.92499999999999
   174   1      5.4749999999999943      60.224999999999994      51.100000000000001
   175   1      9.1249999999999929      27.374999999999993       43.79999999999999
   176   1      9.1249999999999929      27.374999999999993      47.449999999999989
   177   1      9.1249999999999929      27.374999999999993      51.100000000000001
   178   1      9.1249999999999929      31.024999999999999      36.499999999999993
   179   1      9.1249999999999929      29.199999999999996      41.974999999999994
   180   1      9.1249999999999929      31.024999999999999      40.149999999999991
   181   1      7.2999999999999901      31.024999999999999      45.624999999999993
   182   1      9.1249999999999929      29.199999999999996      45.624999999999993
   183   1      9.1249999999999929      31.024999999999999       43.79999999999999
   184   1      7.2999999999999901      29.199999999999996      47.449999999999989
   185   1      7.2999999999999901      31.024999999999999      49.274999999999991
   186   1      9.1249999999999929      29.199999999999996      49.274999999999991
   187   1      9.1249999999999929      31.024999999999999      47.449999999999989
   188   1      9.1249999999999929      29.199999999999996       52.92499999999999
   189   1      9.1249999999999929      31.024999999999999      51.100000000000001
   190   1      9.1249999999999929      31.024999999999999      54.749999999999993
   191   1      9.1249999999999929      31.024999999999999      58.399999999999991
   192   1      9.1249999999999929      32.849999999999994      34.674999999999997
   193   1      9.1249999999999929      34.674999999999997      32.849999999999994
   194   1      7.2999999999999901      34.674999999999997      38.324999999999996
   195   1      9.1249999999999929      32.849999999999994      38.324999999999996
   196   1      9.1249999999999929      34.674999999999997      36.499999999999993
   197   1      7.2999999999999901      32.849999999999994      40.149999999999991
   198   1      7.2999999999999901      34.674999999999997      41.974999999999994
   199   1      9.1249999999999929      32.849999999999994      41.974999999999994
   200   1      9.1249999999999929      34.674999999999997      40.149999999999991
   201   1      7.2999999999999901      32.849999999999994       43.79999999999999
   202   1      7.2999999999999901      34.674999999999997      45.624999999999993
   203   1      9.1249999999999929      32.849999999999994      45.624999999999993
   204   1      9.1249999999999929      34.674999999999997       43.79999999999999
   205   1      7.2999999999999901      32.849999999999994      47.449999999999989
   206   1      7.2999999999999901      34.674999999999997      49.274999999999991
   207   1      9.1249999999999929      32.849999999999994      49.274999999999991
   208   1      9.1249999999999929      34.674999999999997      47.449999999999989
   209   1      7.2999999999999901      32.849999999999994      51.100000000000001
   210   1      7.2999999999999901      34.674999999999997       52.92499999999999
   211   1      9.1249999999999929      32.849999999999994       52.92499999999999
   212   1      9.1249999999999929      34.674999999999997      51.100000000000001
   213   1      7.2999999999999901      32.849999999999994      54.749999999999993
   214   1      7.2999999999999901      34.674999999999997      56.574999999999996
   215   1      9.1249999999999929      32.849999999999994      56.574999999999996
   216   1      9.1249999999999929      34.674999999999997      54.749999999999993
   217   1      9.1249999999999929      32.849999999999994      60.224999999999994
   218   1      9.1249999999999929      34.674999999999997      58.399999999999991
   219   1      9.1249999999999929      34.674999999999997      62.049999999999997
   220   1      9.1249999999999929      36.499999999999993      31.024999999999999
   221   1      7.2999999999999901      38.324999999999996      34.674999999999997
   222   1      9.1249999999999929      36.499999999999993      34.674999999999997
   223   1      9.1249999999999929      38.324999999999996      32.849999999999994
   224   1      7.2999999999999901      36.499999999999993      36.499999999999993
   225   1      7.2999999999999901      38.324999999999996      38.324999999999996
   226   1      9.1249999999999929      36.499999999999993      38.324999999999996
   227   1      9.1249999999999929      38.324999999999996      36.499999999999993
   228   1      7.2999999999999901      36.499999999999993      40.149999999999991
   229   1      7.2999999999999901      38.324999999999996      41.974999999999994
   230   1      9.1249999999999929      36.499999999999993      41.974999999999994
   231   1      9.1249999999999929      38.324999999999996      40.149999999999991
   232   1      7.2999999999999901      36.499999999999993       43.79999999999999
   233   1      7.2999999999999901      38.324999999999996      45.624999999999993
   234   1      9.1249999999999929      36.499999999999993      45.624999999999993
   235   1      9.1249999999999929      38.324999999999996       43.79999999999999
   236   1      7.2999999999999901      36.499999999999993      47.449999999999989
   237   1      7.2999999999999901      38.324999999999996      49.274999999999991
   238   1      9.1249999999999929      36.499999999999993      49.274999999999991
   239   1      9.1249999999999929      38.324999999999996      47.449999999999989
   240   1      7.2999999999999901      36.499999999999993      51.100000000000001
   241   1      7.2999999999999901      38.324999999999996       52.92499999999999
   242   1      9.1249999999999929      36.499999999999993       52.92499999999999
   243   1      9.1249999999999929      38.324999999999996      51.100000000000001
   244   1      7.2999999999999901      36.499999999999993      54.749999999999993
   245   1      7.2999999999999901      38.324999999999996      56.574999999999996
   246   1      9.1249999999999929      36.499999999999993      56.574999999999996
   247   1      9.1249999999999929      38.324999999999996      54.749999999999993
   248   1      7.2999999999999901      36.499999999999993      58.399999999999991
   249   1      7.2999999999999901      38.324999999999996      60.224999999999994
   250   1      9.1249999999999929      36.499999999999993      60.224999999999994
   251   1      9.1249999999999929      38.324999999999996      58.399999999999991
   252   1      9.1249999999999929      36.499999999999993                  63.875
   253   1      9.1249999999999929      38.324999999999996      62.049999999999997
   254   1      9.1249999999999929      40.149999999999991      31.024999999999999
   255   1      9.1249999999999929      41.974999999999994      29.199999999999996
   256   1      7.2999999999999901      40.149999999999991      32.849999999999994
   257   1      7.2999999999999901      41.974999999999994      34.674999999999997
   258   1      9.1249999999999929      40.149999999999991      34.674999999999997
   259   1      9.1249999999999929      41.974999999999994      32.849999999999994
   260   1      7.2999999999999901      40.149999999999991      36.499999999999993
   261   1      7.2999999999999901      41.974999999999994      38.324999999999996
   262   1      9.1249999999999929      40.149999999999991      38.324999999999996
   263   1      9.1249999999999929      41.974999999999994      36.499999999999993
   264   1      7.2999999999999901      40.149999999999991      40.149999999999991
   265   1      7.2999999999999901      41.974999999999994      41.974999999999994
   266   1      9.1249999999999929      40.149999999999991      41.974999999999994
   267   1      9.1249999999999929      41.974999999999994      40.149999999999991
   268   1      7.2999999999999901      40.149999999999991       43.79999999999999
   269   1      7.2999999999999901      41.974999999999994      45.624999999999993
   270   1      9.1249999999999929      40.149999999999991      45.624999999999993
   271   1      9.1249999999999929      41.974999999999994       43.79999999999999
   272   1      7.2999999999999901      40.149999999999991      47.449999999999989
   273   1      7.2999999999999901      41.974999999999994      49.274999999999991
   274   1      9.1249999999999929      40.149999999999991      49.274999999999991
   275   1      9.1249999999999929      41.974999999999994      47.449999999999989
   276   1      7.2999999999999901      40.149999999999991      51.100000000000001
   277   1      7.2999999999999901      41.974999999999994       52.92499999999999
   278   1      9.1249999999999929      40.149999999999991       52.92499999999999
   279   1      9.1249999999999929      41.974999999999994      51.100000000000001
   280   1      7.2999999999999901      40.149999999999991      54.749999999999993
   281   1      7.2999999999999901      41.974999999999994      56.574999999999996
   282   1      9.1249999999999929      40.149999999999991      56.574999999999996
   283   1      9.1249999999999929      41.974999999999994      54.749999999999993
   284   1      7.2999999999999901      40.149999999999991      58.399999999999991
   285   1      7.2999999999999901      41.974999999999994      60.224999999999994
   286   1      9.1249999999999929      40.149999999999991      60.224999999999994
   287   1      9.1249999999999929      41.974999999999994      58.399999999999991
   288   1      7.2999999999999901      40.149999999999991      62.049999999999997
   289   1      9.1249999999999929      40.149999999999991                  63.875
   290   1      9.1249999999999929      41.974999999999994      62.049999999999997
   291   1      9.1249999999999929      41.974999999999994      65.699999999999989
   292   1      9.1249999999999929       43.79999999999999      27.374999999999993
   293   1      7.2999999999999901      45.624999999999993      31.024999999999999
   294   1      9.1249999999999929       43.79999999999999      31.024999999999999
   295   1      9.1249999999999929      45.624999999999993      29.199999999999996
   296   1      7.2999999999999901       43.79999999999999      32.849999999999994
   297   1      7.2999999999999901      45.624999999999993      34.674999999999997
   298   1      9.1249999999999929       43.79999999999999      34.674999999999997
   299   1      9.1249999999999929      45.624999999999993      32.849999999999994
   300   1      7.2999999999999901       43.79999999999999      36.499999999999993
   301   1      7.2999999999999901      45.624999999999993      38.324999999999996
   302   1      9.1249999999999929       43.79999999999999      38.324999999999996
   303   1      9.1249999999999929      45.624999999999993      36.499999999999993
   304   1      7.2999999999999901       43.79999999999999      40.149999999999991
   305   1      7.2999999999999901      45.624999999999993      41.974999999999994
   306   1      9.1249999999999929       43.79999999999999      41.974999999999994
   307   1      9.1249999999999929      45.624999999999993      40.149999999999991
   308   1      7.2999999999999901       43.79999999999999       43.79999999999999
   309   1      7.2999999999999901      45.624999999999993      45.624999999999993
   310   1      9.1249999999999929       43.79999999999999      45.624999999999993
   311   1      9.1249999999999929      45.624999999999993       43.79999999999999
   312   1      7.2999999999999901       43.79999999999999      47.449999999999989
   313   1      7.2999999999999901      45.624999999999993      49.274999999999991
   314   1      9.1249999999999929       43.79999999999999      49.274999999999991
   315   1      9.1249999999999929      45.624999999999993      47.449999999999989
   316   1      7.2999999999999901       43.79999999999999      51.100000000000001
   317   1      7.2999999999999901      45.624999999999993       52.92499999999999
   318   1      9.1249999999999929       43.79999999999999       52.92499999999999
   319   1      9.1249999999999929      45.624999999999993      51.100000000000001
   320   1      7.2999999999999901       43.79999999999999      54.749999999999993
   321   1      7.2999999999999901      45.624999999999993      56.574999999999996
   322   1      9.1249999999999929       43.79999999999999      56.574999999999996
   323   1      9.1249999999999929      45.624999999999993      54.749999999999993
   324   1      7.2999999999999901       43.79999999999999      58.399999999999991
   325   1      7.2999999999999901      45.624999999999993      60.224999999999994
   326   1      9.1249999999999929       43.79999999999999      60.224999999999994
   327   1      9.1249999999999929      45.624999999999993      58.399999999999991
   328   1      7.2999999999999901       43.79999999999999      62.049999999999997
   329   1      7.2999999999999901      45.624999999999993                  63.875
   330   1      9.1249999999999929       43.79999999999999                  63.875
   331   1      9.1249999999999929      45.624999999999993      62.049999999999997
   332   1      9.1249999999999929       43.79999999999999      67.524999999999991
   333   1      9.1249999999999929      45.624999999999993      65.699999999999989
   334   1      9.1249999999999929      47.449999999999989      27.374999999999993
   335   1      7.2999999999999901      47.449999999999989      29.199999999999996
   336   1      7.2999999999999901      49.274999999999991      31.024999999999999
   337   1      9.1249999999999929      47.449999999999989      31.024999999999999
   338   1      9.1249999999999929      49.274999999999991      29.199999999999996
   339   1      7.2999999999999901      47.449999999999989      32.849999999999994
   340   1      7.2999999999999901      49.274999999999991      34.674999999999997
   341   1      9.1249999999999929      47.449999999999989      34.674999999999997
   342   1      9.1249999999999929      49.274999999999991      32.849999999999994
   343   1      7.2999999999999901      47.449999999999989      36.499999999999993
   344   1      7.2999999999999901      49.274999999999991      38.324999999999996
   345   1      9.1249999999999929      47.449999999999989      38.324999999999996
   346   1      9.1249999999999929      49.274999999999991      36.499999999999993
   347   1      7.2999999999999901      47.449999999999989      40.149999999999991
   348   1      7.2999999999999901      49.274999999999991      41.974999999999994
   349   1      9.1249999999999929      47.449999999999989      41.974999999999994
   350   1      9.1249999999999929      49.274999999999991      40.149999999999991
   351   1      7.2999999999999901      47.449999999999989       43.79999999999999
   352   1      7.2999999999999901      49.274999999999991      45.624999999999993
   353   1      9.1249999999999929      47.449999999999989      45.624999999999993
   354   1      9.1249999999999929      49.274999999999991       43.79999999999999
   355   1      7.2999999999999901      47.449999999999989      47.449999999999989
   356   1      7.2999999999999901      49.274999999999991      49.274999999999991
   357   1      9.1249999999999929      47.449999999999989      49.274999999999991
   358   1      9.1249999999999929      49.274999999999991      47.449999999999989