model_files/Fe/Fe_30000/Fe_530/data.Fe_530_bcc_29831 (written by ASE) 

29831 	 atoms 
1  atom types
0.0                      74  xlo xhi
0.0                      74  ylo yhi
0.0                      74  zlo zhi


Atoms 

     1   1  7.1054273576010019e-15      35.875000000000007      35.875000000000007
     2   1      1.4350000000000094      34.440000000000005      35.875000000000007
     3   1      1.4350000000000094      35.875000000000007      34.440000000000005
     4   1  7.1054273576010019e-15      35.875000000000007      38.745000000000005
     5   1      1.4350000000000094      34.440000000000005      38.745000000000005
     6   1      1.4350000000000094      35.875000000000007      37.310000000000002
     7   1      1.4350000000000094      35.875000000000007      40.180000000000007
     8   1  7.1054273576010019e-15      38.745000000000005      35.875000000000007
     9   1      1.4350000000000094      37.310000000000002      35.875000000000007
    10   1      1.4350000000000094      38.745000000000005      34.440000000000005
    11   1  7.1054273576010019e-15      37.310000000000002      37.310000000000002
    12   1  7.1054273576010019e-15      38.745000000000005      38.745000000000005
    13   1      1.4350000000000094      37.310000000000002      38.745000000000005
    14   1      1.4350000000000094      38.745000000000005      37.310000000000002
    15   1      1.4350000000000094      38.745000000000005      40.180000000000007
    16   1      1.4350000000000094      40.180000000000007      35.875000000000007
    17   1      1.4350000000000094      40.180000000000007      38.745000000000005
    18   1      4.3050000000000068      28.700000000000006      30.135000000000005
    19   1      4.3050000000000068      30.135000000000005      28.700000000000006
    20   1      4.3050000000000068      28.700000000000006       33.00500000000001
    21   1      4.3050000000000068      30.135000000000005      31.570000000000011
    22   1      4.3050000000000068      28.700000000000006      35.875000000000007
    23   1      4.3050000000000068      30.135000000000005      34.440000000000005
    24   1      4.3050000000000068      28.700000000000006      38.745000000000005
    25   1      4.3050000000000068      30.135000000000005      37.310000000000002
    26   1      4.3050000000000068      28.700000000000006      41.615000000000009
    27   1      4.3050000000000068      30.135000000000005      40.180000000000007
    28   1      4.3050000000000068      28.700000000000006      44.485000000000014
    29   1      4.3050000000000068      30.135000000000005      43.050000000000011
    30   1      4.3050000000000068      30.135000000000005      45.920000000000009
    31   1      4.3050000000000068      31.570000000000011      30.135000000000005
    32   1      4.3050000000000068       33.00500000000001      28.700000000000006
    33   1      2.8700000000000117      31.570000000000011      31.570000000000011
    34   1      2.8700000000000117       33.00500000000001       33.00500000000001
    35   1      4.3050000000000068      31.570000000000011       33.00500000000001
    36   1      4.3050000000000068       33.00500000000001      31.570000000000011
    37   1      2.8700000000000117      31.570000000000011      34.440000000000005
    38   1      2.8700000000000117       33.00500000000001      35.875000000000007
    39   1      4.3050000000000068      31.570000000000011      35.875000000000007
    40   1      4.3050000000000068       33.00500000000001      34.440000000000005
    41   1      2.8700000000000117      31.570000000000011      37.310000000000002
    42   1      2.8700000000000117       33.00500000000001      38.745000000000005
    43   1      4.3050000000000068      31.570000000000011      38.745000000000005
    44   1      4.3050000000000068       33.00500000000001      37.310000000000002
    45   1      2.8700000000000117      31.570000000000011      40.180000000000007
    46   1      2.8700000000000117       33.00500000000001      41.615000000000009
    47   1      4.3050000000000068      31.570000000000011      41.615000000000009
    48   1      4.3050000000000068       33.00500000000001      40.180000000000007
    49   1      2.8700000000000117      31.570000000000011      43.050000000000011
    50   1      4.3050000000000068      31.570000000000011      44.485000000000014
    51   1      4.3050000000000068       33.00500000000001      43.050000000000011
    52   1      4.3050000000000068       33.00500000000001      45.920000000000009
    53   1      4.3050000000000068      34.440000000000005      30.135000000000005
    54   1      4.3050000000000068      35.875000000000007      28.700000000000006
    55   1      2.8700000000000117      34.440000000000005      31.570000000000011
    56   1      2.8700000000000117      35.875000000000007       33.00500000000001
    57   1      4.3050000000000068      34.440000000000005       33.00500000000001
    58   1      4.3050000000000068      35.875000000000007      31.570000000000011
    59   1      2.8700000000000117      34.440000000000005      34.440000000000005
    60   1      2.8700000000000117      35.875000000000007      35.875000000000007
    61   1      4.3050000000000068      34.440000000000005      35.875000000000007
    62   1      4.3050000000000068      35.875000000000007      34.440000000000005
    63   1      2.8700000000000117      34.440000000000005      37.310000000000002
    64   1      2.8700000000000117      35.875000000000007      38.745000000000005
    65   1      4.3050000000000068      34.440000000000005      38.745000000000005
    66   1      4.3050000000000068      35.875000000000007      37.310000000000002
    67   1      2.8700000000000117      34.440000000000005      40.180000000000007
    68   1      2.8700000000000117      35.875000000000007      41.615000000000009
    69   1      4.3050000000000068      34.440000000000005      41.615000000000009
    70   1      4.3050000000000068      35.875000000000007      40.180000000000007
    71   1      2.8700000000000117      34.440000000000005      43.050000000000011
    72   1      4.3050000000000068      34.440000000000005      44.485000000000014
    73   1      4.3050000000000068      35.875000000000007      43.050000000000011
    74   1      4.3050000000000068      35.875000000000007      45.920000000000009
    75   1      4.3050000000000068      37.310000000000002      30.135000000000005
    76   1      4.3050000000000068      38.745000000000005      28.700000000000006
    77   1      2.8700000000000117      37.310000000000002      31.570000000000011
    78   1      2.8700000000000117      38.745000000000005       33.00500000000001
    79   1      4.3050000000000068      37.310000000000002       33.00500000000001
    80   1      4.3050000000000068      38.745000000000005      31.570000000000011
    81   1      2.8700000000000117      37.310000000000002      34.440000000000005
    82   1      2.8700000000000117      38.745000000000005      35.875000000000007
    83   1      4.3050000000000068      37.310000000000002      35.875000000000007
    84   1      4.3050000000000068      38.745000000000005      34.440000000000005
    85   1      2.8700000000000117      37.310000000000002      37.310000000000002
    86   1      2.8700000000000117      38.745000000000005      38.745000000000005
    87   1      4.3050000000000068      37.310000000000002      38.745000000000005
    88   1      4.3050000000000068      38.745000000000005      37.310000000000002
    89   1      2.8700000000000117      37.310000000000002      40.180000000000007
    90   1      2.8700000000000117      38.745000000000005      41.615000000000009
    91   1      4.3050000000000068      37.310000000000002      41.615000000000009
    92   1      4.3050000000000068      38.745000000000005      40.180000000000007
    93   1      2.8700000000000117      37.310000000000002      43.050000000000011
    94   1      4.3050000000000068      37.310000000000002      44.485000000000014
    95   1      4.3050000000000068      38.745000000000005      43.050000000000011
    96   1      4.3050000000000068      38.745000000000005      45.920000000000009
    97   1      4.3050000000000068      40.180000000000007      30.135000000000005
    98   1      4.3050000000000068      41.615000000000009      28.700000000000006
    99   1      2.8700000000000117      40.180000000000007      31.570000000000011
   100   1      2.8700000000000117      41.615000000000009       33.00500000000001
   101   1      4.3050000000000068      40.180000000000007       33.00500000000001
   102   1      4.3050000000000068      41.615000000000009      31.570000000000011
   103   1      2.8700000000000117      40.180000000000007      34.440000000000005
   104   1      2.8700000000000117      41.615000000000009      35.875000000000007
   105   1      4.3050000000000068      40.180000000000007      35.875000000000007
   106   1      4.3050000000000068      41.615000000000009      34.440000000000005
   107   1      2.8700000000000117      40.180000000000007      37.310000000000002
   108   1      2.8700000000000117      41.615000000000009      38.745000000000005
   109   1      4.3050000000000068      40.180000000000007      38.745000000000005
   110   1      4.3050000000000068      41.615000000000009      37.310000000000002
   111   1      2.8700000000000117      40.180000000000007      40.180000000000007
   112   1      2.8700000000000117      41.615000000000009      41.615000000000009
   113   1      4.3050000000000068      40.180000000000007      41.615000000000009
   114   1      4.3050000000000068      41.615000000000009      40.180000000000007
   115   1      2.8700000000000117      40.180000000000007      43.050000000000011
   116   1      4.3050000000000068      40.180000000000007      44.485000000000014
   117   1      4.3050000000000068      41.615000000000009      43.050000000000011
   118   1      4.3050000000000068      41.615000000000009      45.920000000000009
   119   1      4.3050000000000068      43.050000000000011      30.135000000000005
   120   1      4.3050000000000068      44.485000000000014      28.700000000000006
   121   1      2.8700000000000117      43.050000000000011      31.570000000000011
   122   1      4.3050000000000068      43.050000000000011       33.00500000000001
   123   1      4.3050000000000068      44.485000000000014      31.570000000000011
   124   1      2.8700000000000117      43.050000000000011      34.440000000000005
   125   1      4.3050000000000068      43.050000000000011      35.875000000000007
   126   1      4.3050000000000068      44.485000000000014      34.440000000000005
   127   1      2.8700000000000117      43.050000000000011      37.310000000000002
   128   1      4.3050000000000068      43.050000000000011      38.745000000000005
   129   1      4.3050000000000068      44.485000000000014      37.310000000000002
   130   1      2.8700000000000117      43.050000000000011      40.180000000000007
   131   1      4.3050000000000068      43.050000000000011      41.615000000000009
   132   1      4.3050000000000068      44.485000000000014      40.180000000000007
   133   1      2.8700000000000117      43.050000000000011      43.050000000000011
   134   1      4.3050000000000068      43.050000000000011      44.485000000000014
   135   1      4.3050000000000068      44.485000000000014      43.050000000000011
   136   1      4.3050000000000068      44.485000000000014      45.920000000000009
   137   1      4.3050000000000068      45.920000000000009      30.135000000000005
   138   1      4.3050000000000068      45.920000000000009       33.00500000000001
   139   1      4.3050000000000068      45.920000000000009      35.875000000000007
   140   1      4.3050000000000068      45.920000000000009      38.745000000000005
   141   1      4.3050000000000068      45.920000000000009      41.615000000000009
   142   1      4.3050000000000068      45.920000000000009      44.485000000000014
   143   1      7.1750000000000123      24.395000000000007      25.830000000000009
   144   1      7.1750000000000123      24.395000000000007      28.700000000000006
   145   1      7.1750000000000123      24.395000000000007      31.570000000000011
   146   1      7.1750000000000123      24.395000000000007      34.440000000000005
   147   1      7.1750000000000123      24.395000000000007      37.310000000000002
   148   1      7.1750000000000123      24.395000000000007      40.180000000000007
   149   1      7.1750000000000123      24.395000000000007      43.050000000000011
   150   1      7.1750000000000123      24.395000000000007      45.920000000000009
   151   1      7.1750000000000123      24.395000000000007      48.790000000000006
   152   1      7.1750000000000123      25.830000000000009      24.395000000000007
   153   1      5.7400000000000091      27.265000000000008      27.265000000000008
   154   1      7.1750000000000123      25.830000000000009      27.265000000000008
   155   1      7.1750000000000123      27.265000000000008      25.830000000000009
   156   1      5.7400000000000091      27.265000000000008      30.135000000000005
   157   1      7.1750000000000123      25.830000000000009      30.135000000000005
   158   1      7.1750000000000123      27.265000000000008      28.700000000000006
   159   1      5.7400000000000091      27.265000000000008       33.00500000000001
   160   1      7.1750000000000123      25.830000000000009       33.00500000000001
   161   1      7.1750000000000123      27.265000000000008      31.570000000000011
   162   1      5.7400000000000091      27.265000000000008      35.875000000000007
   163   1      7.1750000000000123      25.830000000000009      35.875000000000007
   164   1      7.1750000000000123      27.265000000000008      34.440000000000005
   165   1      5.7400000000000091      27.265000000000008      38.745000000000005
   166   1      7.1750000000000123      25.830000000000009      38.745000000000005
   167   1      7.1750000000000123      27.265000000000008      37.310000000000002
   168   1      5.7400000000000091      27.265000000000008      41.615000000000009
   169   1      7.1750000000000123      25.830000000000009      41.615000000000009
   170   1      7.1750000000000123      27.265000000000008      40.180000000000007
   171   1      5.7400000000000091      27.265000000000008      44.485000000000014
   172   1      7.1750000000000123      25.830000000000009      44.485000000000014
   173   1      7.1750000000000123      27.265000000000008      43.050000000000011
   174   1      5.7400000000000091      27.265000000000008      47.355000000000004
   175   1      7.1750000000000123      25.830000000000009      47.355000000000004
   176   1      7.1750000000000123      27.265000000000008      45.920000000000009
   177   1      7.1750000000000123      25.830000000000009      50.225000000000009
   178   1      7.1750000000000123      27.265000000000008      48.790000000000006
   179   1      7.1750000000000123      28.700000000000006      24.395000000000007
   180   1      5.7400000000000091      30.135000000000005      27.265000000000008
   181   1      7.1750000000000123      28.700000000000006      27.265000000000008
   182   1      7.1750000000000123      30.135000000000005      25.830000000000009
   183   1      5.7400000000000091      28.700000000000006      28.700000000000006
   184   1      5.7400000000000091      30.135000000000005      30.135000000000005
   185   1      7.1750000000000123      28.700000000000006      30.135000000000005
   186   1      7.1750000000000123      30.135000000000005      28.700000000000006
   187   1      5.7400000000000091      28.700000000000006      31.570000000000011
   188   1      5.7400000000000091      30.135000000000005       33.00500000000001
   189   1      7.1750000000000123      28.700000000000006       33.00500000000001
   190   1      7.1750000000000123      30.135000000000005      31.570000000000011
   191   1      5.7400000000000091      28.700000000000006      34.440000000000005
   192   1      5.7400000000000091      30.135000000000005      35.875000000000007
   193   1      7.1750000000000123      28.700000000000006      35.875000000000007
   194   1      7.1750000000000123      30.135000000000005      34.440000000000005
   195   1      5.7400000000000091      28.700000000000006      37.310000000000002
   196   1      5.7400000000000091      30.135000000000005      38.745000000000005
   197   1      7.1750000000000123      28.700000000000006      38.745000000000005
   198   1      7.1750000000000123      30.135000000000005      37.310000000000002
   199   1      5.7400000000000091      28.700000000000006      40.180000000000007
   200   1      5.7400000000000091      30.135000000000005      41.615000000000009
   201   1      7.1750000000000123      28.700000000000006      41.615000000000009
   202   1      7.1750000000000123      30.135000000000005      40.180000000000007
   203   1      5.7400000000000091      28.700000000000006      43.050000000000011
   204   1      5.7400000000000091      30.135000000000005      44.485000000000014
   205   1      7.1750000000000123      28.700000000000006      44.485000000000014
   206   1      7.1750000000000123      30.135000000000005      43.050000000000011
   207   1      5.7400000000000091      28.700000000000006      45.920000000000009
   208   1      5.7400000000000091      30.135000000000005      47.355000000000004
   209   1      7.1750000000000123      28.700000000000006      47.355000000000004
   210   1      7.1750000000000123      30.135000000000005      45.920000000000009
   211   1      7.1750000000000123      28.700000000000006      50.225000000000009
   212   1      7.1750000000000123      30.135000000000005      48.790000000000006
   213   1      7.1750000000000123      31.570000000000011      24.395000000000007
   214   1      5.7400000000000091       33.00500000000001      27.265000000000008
   215   1      7.1750000000000123      31.570000000000011      27.265000000000008
   216   1      7.1750000000000123       33.00500000000001      25.830000000000009
   217   1      5.7400000000000091      31.570000000000011      28.700000000000006
   218   1      5.7400000000000091       33.00500000000001      30.135000000000005
   219   1      7.1750000000000123      31.570000000000011      30.135000000000005
   220   1      7.1750000000000123       33.00500000000001      28.700000000000006
   221   1      5.7400000000000091      31.570000000000011      31.570000000000011
   222   1      5.7400000000000091       33.00500000000001       33.00500000000001
   223   1      7.1750000000000123      31.570000000000011       33.00500000000001
   224   1      7.1750000000000123       33.00500000000001      31.570000000000011
   225   1      5.7400000000000091      31.570000000000011      34.440000000000005
   226   1      5.7400000000000091       33.00500000000001      35.875000000000007
   227   1      7.1750000000000123      31.570000000000011      35.875000000000007
   228   1      7.1750000000000123       33.00500000000001      34.440000000000005
   229   1      5.7400000000000091      31.570000000000011      37.310000000000002
   230   1      5.7400000000000091       33.00500000000001      38.745000000000005
   231   1      7.1750000000000123      31.570000000000011      38.745000000000005
   232   1      7.1750000000000123       33.00500000000001      37.310000000000002
   233   1      5.7400000000000091      31.570000000000011      40.180000000000007
   234   1      5.7400000000000091       33.00500000000001      41.615000000000009
   235   1      7.1750000000000123      31.570000000000011      41.615000000000009
   236   1      7.1750000000000123       33.00500000000001      40.180000000000007
   237   1      5.7400000000000091      31.570000000000011      43.050000000000011
   238   1      5.7400000000000091       33.00500000000001      44.485000000000014
   239   1      7.1750000000000123      31.570000000000011      44.485000000000014
   240   1      7.1750000000000123       33.00500000000001      43.050000000000011
   241   1      5.7400000000000091      31.570000000000011      45.920000000000009
   242   1      5.7400000000000091       33.00500000000001      47.355000000000004
   243   1      7.1750000000000123      31.570000000000011      47.355000000000004
   244   1      7.1750000000000123       33.00500000000001      45.920000000000009
   245   1      7.1750000000000123      31.570000000000011      50.225000000000009
   246   1      7.1750000000000123       33.00500000000001      48.790000000000006
   247   1      7.1750000000000123      34.440000000000005      24.395000000000007
   248   1      5.7400000000000091      35.875000000000007      27.265000000000008
   249   1      7.1750000000000123      34.440000000000005      27.265000000000008
   250   1      7.1750000000000123      35.875000000000007      25.830000000000009
   251   1      5.7400000000000091      34.440000000000005      28.700000000000006
   252   1      5.7400000000000091      35.875000000000007      30.135000000000005
   253   1      7.1750000000000123      34.440000000000005      30.135000000000005
   254   1      7.1750000000000123      35.875000000000007      28.700000000000006
   255   1      5.7400000000000091      34.440000000000005      31.570000000000011
   256   1      5.7400000000000091      35.875000000000007       33.00500000000001
   257   1      7.1750000000000123      34.440000000000005       33.00500000000001
   258   1      7.1750000000000123      35.875000000000007      31.570000000000011
   259   1      5.7400000000000091      34.440000000000005      34.440000000000005
   260   1      5.7400000000000091      35.875000000000007      35.875000000000007
   261   1      7.1750000000000123      34.440000000000005      35.875000000000007
   262   1      7.1750000000000123      35.875000000000007      34.440000000000005
   263   1      5.7400000000000091      34.440000000000005      37.310000000000002
   264   1      5.7400000000000091      35.875000000000007      38.745000000000005
   265   1      7.1750000000000123      34.440000000000005      38.745000000000005
   266   1      7.1750000000000123      35.875000000000007      37.310000000000002
   267   1      5.7400000000000091      34.440000000000005      40.180000000000007
   268   1      5.7400000000000091      35.875000000000007      41.615000000000009
   269   1      7.1750000000000123      34.440000000000005      41.615000000000009
   270   1      7.1750000000000123      35.875000000000007      40.180000000000007
   271   1      5.7400000000000091      34.440000000000005      43.050000000000011
   272   1      5.7400000000000091      35.875000000000007      44.485000000000014
   273   1      7.1750000000000123      34.440000000000005      44.485000000000014
   274   1      7.1750000000000123      35.875000000000007      43.050000000000011
   275   1      5.7400000000000091      34.440000000000005      45.920000000000009
   276   1      5.7400000000000091      35.875000000000007      47.355000000000004
   277   1      7.1750000000000123      34.440000000000005      47.355000000000004
   278   1      7.1750000000000123      35.875000000000007      45.920000000000009
   279   1      7.1750000000000123      34.440000000000005      50.225000000000009
   280   1      7.1750000000000123      35.875000000000007      48.790000000000006
   281   1      7.1750000000000123      37.310000000000002      24.395000000000007
   282   1      5.7400000000000091      38.745000000000005      27.265000000000008
   283   1      7.1750000000000123      37.310000000000002      27.265000000000008
   284   1      7.1750000000000123      38.745000000000005      25.830000000000009
   285   1      5.7400000000000091      37.310000000000002      28.700000000000006
   286   1      5.7400000000000091      38.745000000000005      30.135000000000005
   287   1      7.1750000000000123      37.310000000000002      30.135000000000005
   288   1      7.1750000000000123      38.745000000000005      28.700000000000006
   289   1      5.7400000000000091      37.310000000000002      31.570000000000011
   290   1      5.7400000000000091      38.745000000000005       33.00500000000001
   291   1      7.1750000000000123      37.310000000000002       33.00500000000001
   292   1      7.1750000000000123      38.745000000000005      31.570000000000011
   293   1      5.7400000000000091      37.310000000000002      34.440000000000005
   294   1      5.7400000000000091      38.745000000000005      35.875000000000007
   295   1      7.1750000000000123      37.310000000000002      35.875000000000007
   296   1      7.1750000000000123      38.745000000000005      34.440000000000005
   297   1      5.7400000000000091      37.310000000000002      37.310000000000002
   298   1      5.7400000000000091      38.745000000000005      38.745000000000005
   299   1      7.1750000000000123      37.310000000000002      38.745000000000005
   300   1      7.1750000000000123      38.745000000000005      37.310000000000002
   301   1      5.7400000000000091      37.310000000000002      40.180000000000007
   302   1      5.7400000000000091      38.745000000000005      41.615000000000009
   303   1      7.1750000000000123      37.310000000000002      41.615000000000009
   304   1      7.1750000000000123      38.745000000000005      40.180000000000007
   305   1      5.7400000000000091      37.310000000000002      43.050000000000011
   306   1      5.7400000000000091      38.745000000000005      44.485000000000014
   307   1      7.1750000000000123      37.310000000000002      44.485000000000014
   308   1      7.1750000000000123      38.745000000000005      43.050000000000011
   309   1      5.7400000000000091      37.310000000000002      45.920000000000009
   310   1      5.7400000000000091      38.745000000000005      47.355000000000004
   311   1      7.1750000000000123      37.310000000000002      47.355000000000004
   312   1      7.1750000000000123      38.745000000000005      45.920000000000009
   313   1      7.1750000000000123      37.310000000000002      50.225000000000009
   314   1      7.1750000000000123      38.745000000000005      48.790000000000006
   315   1      7.1750000000000123      40.180000000000007      24.395000000000007
   316   1      5.7400000000000091      41.615000000000009      27.265000000000008
   317   1      7.1750000000000123      40.180000000000007      27.265000000000008
   318   1      7.1750000000000123      41.615000000000009      25.830000000000009
   319   1      5.7400000000000091      40.180000000000007      28.700000000000006
   320   1      5.7400000000000091      41.615000000000009      30.135000000000005
   321   1      7.1750000000000123      40.180000000000007      30.135000000000005
   322   1      7.1750000000000123      41.615000000000009      28.700000000000006
   323   1      5.7400000000000091      40.180000000000007      31.570000000000011
   324   1      5.7400000000000091      41.615000000000009       33.00500000000001
   325   1      7.1750000000000123      40.180000000000007       33.00500000000001
   326   1      7.1750000000000123      41.615000000000009      31.570000000000011
   327   1      5.7400000000000091      40.180000000000007      34.440000000000005
   328   1      5.7400000000000091      41.615000000000009      35.875000000000007
   329   1      7.1750000000000123      40.180000000000007      35.875000000000007
   330   1      7.1750000000000123      41.615000000000009      34.440000000000005
   331   1      5.7400000000000091      40.180000000000007      37.310000000000002
   332   1      5.7400000000000091      41.615000000000009      38.745000000000005
   333   1      7.1750000000000123      40.180000000000007      38.745000000000005
   334   1      7.1750000000000123      41.615000000000009      37.310000000000002
   335   1      5.7400000000000091      40.180000000000007      40.180000000000007
   336   1      5.7400000000000091      41.615000000000009      41.615000000000009
   337   1      7.1750000000000123      40.180000000000007      41.615000000000009
   338   1      7.1750000000000123      41.615000000000009      40.180000000000007
   339   1      5.7400000000000091      40.180000000000007      43.050000000000011
   340   1      5.7400000000000091      41.615000000000009      44.485000000000014
   341   1      7.1750000000000123      40.180000000000007      44.485000000000014
   342   1      7.1750000000000123      41.615000000000009      43.050000000000011
   343   1      5.7400000000000091      40.180000000000007      45.920000000000009
   344   1      5.7400000000000091      41.615000000000009      47.355000000000004
   345   1      7.1750000000000123      40.180000000000007      47.355000000000004
   346   1      7.1750000000000123      41.615000000000009      45.920000000000009
   347   1      7.1750000000000123      40.180000000000007      50.225000000000009
   348   1      7.1750000000000123      41.615000000000009      48.790000000000006
   349   1      7.1750000000000123      43.050000000000011      24.395000000000007
   350   1      5.7400000000000091      44.485000000000014      27.265000000000008
   351   1      7.1750000000000123      43.050000000000011      27.265000000000008
   352   1      7.1750000000000123      44.485000000000014      25.830000000000009
   353   1      5.7400000000000091      43.050000000000011      28.700000000000006
   354   1      5.7400000000000091      44.485000000000014      30.135000000000005
   355   1      7.1750000000000123      43.050000000000011      30.135000000000005
   356   1      7.1750000000000123      44.485000000000014      28.700000000000006
   357   1      5.7400000000000091      43.050000000000011      31.570000000000011
   358   1      5.7400000000000091      44.485000000000014       33.00500000000001