model_files/Pt/Pt_10000/Pt_321/data.Pt_321_fcc_9869 (written by ASE) 

9869 	 atoms 
1  atom types
0.0                      78  xlo xhi
0.0                      78  ylo yhi
0.0                      78  zlo zhi


Atoms 

     1   1      1.9600000000000009      37.240000000000002      39.199999999999989
     2   1      1.9600000000000009      39.199999999999989      37.240000000000002
     3   1                       0      39.199999999999989      39.199999999999989
     4   1      1.9600000000000009      39.199999999999989      41.159999999999997
     5   1      1.9600000000000009      41.159999999999997      39.199999999999989
     6   1      5.8800000000000017      31.359999999999999      37.240000000000002
     7   1      5.8800000000000017                   33.32      35.280000000000001
     8   1      5.8800000000000017      31.359999999999999      41.159999999999997
     9   1      5.8800000000000017                   33.32      39.199999999999989
    10   1      5.8800000000000017                   33.32      43.119999999999997
    11   1      5.8800000000000017      35.280000000000001                   33.32
    12   1      5.8800000000000017      37.240000000000002      31.359999999999999
    13   1      3.9199999999999946      35.280000000000001      35.280000000000001
    14   1      3.9199999999999946      37.240000000000002      37.240000000000002
    15   1      5.8800000000000017      35.280000000000001      37.240000000000002
    16   1      5.8800000000000017      37.240000000000002      35.280000000000001
    17   1      3.9199999999999946      35.280000000000001      39.199999999999989
    18   1      3.9199999999999946      37.240000000000002      41.159999999999997
    19   1      5.8800000000000017      35.280000000000001      41.159999999999997
    20   1      5.8800000000000017      37.240000000000002      39.199999999999989
    21   1      3.9199999999999946      35.280000000000001      43.119999999999997
    22   1      5.8800000000000017      35.280000000000001      45.079999999999998
    23   1      5.8800000000000017      37.240000000000002      43.119999999999997
    24   1      5.8800000000000017      37.240000000000002      47.039999999999999
    25   1      5.8800000000000017      39.199999999999989                   33.32
    26   1      5.8800000000000017      41.159999999999997      31.359999999999999
    27   1      3.9199999999999946      39.199999999999989      35.280000000000001
    28   1      3.9199999999999946      41.159999999999997      37.240000000000002
    29   1      5.8800000000000017      39.199999999999989      37.240000000000002
    30   1      5.8800000000000017      41.159999999999997      35.280000000000001
    31   1      3.9199999999999946      39.199999999999989      39.199999999999989
    32   1      3.9199999999999946      41.159999999999997      41.159999999999997
    33   1      5.8800000000000017      39.199999999999989      41.159999999999997
    34   1      5.8800000000000017      41.159999999999997      39.199999999999989
    35   1      3.9199999999999946      39.199999999999989      43.119999999999997
    36   1      5.8800000000000017      39.199999999999989      45.079999999999998
    37   1      5.8800000000000017      41.159999999999997      43.119999999999997
    38   1      5.8800000000000017      41.159999999999997      47.039999999999999
    39   1      5.8800000000000017      43.119999999999997                   33.32
    40   1      3.9199999999999946      43.119999999999997      35.280000000000001
    41   1      5.8800000000000017      43.119999999999997      37.240000000000002
    42   1      5.8800000000000017      45.079999999999998      35.280000000000001
    43   1      3.9199999999999946      43.119999999999997      39.199999999999989
    44   1      5.8800000000000017      43.119999999999997      41.159999999999997
    45   1      5.8800000000000017      45.079999999999998      39.199999999999989
    46   1      3.9199999999999946      43.119999999999997      43.119999999999997
    47   1      5.8800000000000017      43.119999999999997      45.079999999999998
    48   1      5.8800000000000017      45.079999999999998      43.119999999999997
    49   1      5.8800000000000017      47.039999999999999      37.240000000000002
    50   1      5.8800000000000017      47.039999999999999      41.159999999999997
    51   1      9.7999999999999972      25.479999999999997      39.199999999999989
    52   1      9.7999999999999972      27.439999999999994                   33.32
    53   1      9.7999999999999972      29.399999999999999      31.359999999999999
    54   1      7.8399999999999954      29.399999999999999      37.240000000000002
    55   1      9.7999999999999972      27.439999999999994      37.240000000000002
    56   1      9.7999999999999972      29.399999999999999      35.280000000000001
    57   1      7.8399999999999954      27.439999999999994      39.199999999999989
    58   1      7.8399999999999954      29.399999999999999      41.159999999999997
    59   1      9.7999999999999972      27.439999999999994      41.159999999999997
    60   1      9.7999999999999972      29.399999999999999      39.199999999999989
    61   1      9.7999999999999972      27.439999999999994      45.079999999999998
    62   1      9.7999999999999972      29.399999999999999      43.119999999999997
    63   1      9.7999999999999972      29.399999999999999      47.039999999999999
    64   1      9.7999999999999972      31.359999999999999      29.399999999999999
    65   1      9.7999999999999972                   33.32      27.439999999999994
    66   1      7.8399999999999954      31.359999999999999      31.359999999999999
    67   1      7.8399999999999954                   33.32                   33.32
    68   1      9.7999999999999972      31.359999999999999                   33.32
    69   1      9.7999999999999972                   33.32      31.359999999999999
    70   1      7.8399999999999954      31.359999999999999      35.280000000000001
    71   1      7.8399999999999954                   33.32      37.240000000000002
    72   1      9.7999999999999972      31.359999999999999      37.240000000000002
    73   1      9.7999999999999972                   33.32      35.280000000000001
    74   1      7.8399999999999954      31.359999999999999      39.199999999999989
    75   1      7.8399999999999954                   33.32      41.159999999999997
    76   1      9.7999999999999972      31.359999999999999      41.159999999999997
    77   1      9.7999999999999972                   33.32      39.199999999999989
    78   1      7.8399999999999954      31.359999999999999      43.119999999999997
    79   1      7.8399999999999954                   33.32      45.079999999999998
    80   1      9.7999999999999972      31.359999999999999      45.079999999999998
    81   1      9.7999999999999972                   33.32      43.119999999999997
    82   1      7.8399999999999954      31.359999999999999      47.039999999999999
    83   1      9.7999999999999972      31.359999999999999                      49
    84   1      9.7999999999999972                   33.32      47.039999999999999
    85   1      9.7999999999999972                   33.32      50.959999999999994
    86   1      7.8399999999999954      37.240000000000002      29.399999999999999
    87   1      9.7999999999999972      35.280000000000001      29.399999999999999
    88   1      9.7999999999999972      37.240000000000002      27.439999999999994
    89   1      7.8399999999999954      35.280000000000001      31.359999999999999
    90   1      7.8399999999999954      37.240000000000002                   33.32
    91   1      9.7999999999999972      35.280000000000001                   33.32
    92   1      9.7999999999999972      37.240000000000002      31.359999999999999
    93   1      7.8399999999999954      35.280000000000001      35.280000000000001
    94   1      7.8399999999999954      37.240000000000002      37.240000000000002
    95   1      9.7999999999999972      35.280000000000001      37.240000000000002
    96   1      9.7999999999999972      37.240000000000002      35.280000000000001
    97   1      7.8399999999999954      35.280000000000001      39.199999999999989
    98   1      7.8399999999999954      37.240000000000002      41.159999999999997
    99   1      9.7999999999999972      35.280000000000001      41.159999999999997
   100   1      9.7999999999999972      37.240000000000002      39.199999999999989
   101   1      7.8399999999999954      35.280000000000001      43.119999999999997
   102   1      7.8399999999999954      37.240000000000002      45.079999999999998
   103   1      9.7999999999999972      35.280000000000001      45.079999999999998
   104   1      9.7999999999999972      37.240000000000002      43.119999999999997
   105   1      7.8399999999999954      35.280000000000001      47.039999999999999
   106   1      7.8399999999999954      37.240000000000002                      49
   107   1      9.7999999999999972      35.280000000000001                      49
   108   1      9.7999999999999972      37.240000000000002      47.039999999999999
   109   1      9.7999999999999972      37.240000000000002      50.959999999999994
   110   1      9.7999999999999972      39.199999999999989      25.479999999999997
   111   1      7.8399999999999954      39.199999999999989      27.439999999999994
   112   1      7.8399999999999954      41.159999999999997      29.399999999999999
   113   1      9.7999999999999972      39.199999999999989      29.399999999999999
   114   1      9.7999999999999972      41.159999999999997      27.439999999999994
   115   1      7.8399999999999954      39.199999999999989      31.359999999999999
   116   1      7.8399999999999954      41.159999999999997                   33.32
   117   1      9.7999999999999972      39.199999999999989                   33.32
   118   1      9.7999999999999972      41.159999999999997      31.359999999999999
   119   1      7.8399999999999954      39.199999999999989      35.280000000000001
   120   1      7.8399999999999954      41.159999999999997      37.240000000000002
   121   1      9.7999999999999972      39.199999999999989      37.240000000000002
   122   1      9.7999999999999972      41.159999999999997      35.280000000000001
   123   1      7.8399999999999954      39.199999999999989      39.199999999999989
   124   1      7.8399999999999954      41.159999999999997      41.159999999999997
   125   1      9.7999999999999972      39.199999999999989      41.159999999999997
   126   1      9.7999999999999972      41.159999999999997      39.199999999999989
   127   1      7.8399999999999954      39.199999999999989      43.119999999999997
   128   1      7.8399999999999954      41.159999999999997      45.079999999999998
   129   1      9.7999999999999972      39.199999999999989      45.079999999999998
   130   1      9.7999999999999972      41.159999999999997      43.119999999999997
   131   1      7.8399999999999954      39.199999999999989      47.039999999999999
   132   1      7.8399999999999954      41.159999999999997                      49
   133   1      9.7999999999999972      39.199999999999989                      49
   134   1      9.7999999999999972      41.159999999999997      47.039999999999999
   135   1      7.8399999999999954      39.199999999999989      50.959999999999994
   136   1      9.7999999999999972      39.199999999999989      52.919999999999987
   137   1      9.7999999999999972      41.159999999999997      50.959999999999994
   138   1      9.7999999999999972      43.119999999999997      29.399999999999999
   139   1      9.7999999999999972      45.079999999999998      27.439999999999994
   140   1      7.8399999999999954      43.119999999999997      31.359999999999999
   141   1      7.8399999999999954      45.079999999999998                   33.32
   142   1      9.7999999999999972      43.119999999999997                   33.32
   143   1      9.7999999999999972      45.079999999999998      31.359999999999999
   144   1      7.8399999999999954      43.119999999999997      35.280000000000001
   145   1      7.8399999999999954      45.079999999999998      37.240000000000002
   146   1      9.7999999999999972      43.119999999999997      37.240000000000002
   147   1      9.7999999999999972      45.079999999999998      35.280000000000001
   148   1      7.8399999999999954      43.119999999999997      39.199999999999989
   149   1      7.8399999999999954      45.079999999999998      41.159999999999997
   150   1      9.7999999999999972      43.119999999999997      41.159999999999997
   151   1      9.7999999999999972      45.079999999999998      39.199999999999989
   152   1      7.8399999999999954      43.119999999999997      43.119999999999997
   153   1      7.8399999999999954      45.079999999999998      45.079999999999998
   154   1      9.7999999999999972      43.119999999999997      45.079999999999998
   155   1      9.7999999999999972      45.079999999999998      43.119999999999997
   156   1      7.8399999999999954      43.119999999999997      47.039999999999999
   157   1      9.7999999999999972      43.119999999999997                      49
   158   1      9.7999999999999972      45.079999999999998      47.039999999999999
   159   1      9.7999999999999972      45.079999999999998      50.959999999999994
   160   1      9.7999999999999972      47.039999999999999      29.399999999999999
   161   1      7.8399999999999954      47.039999999999999      31.359999999999999
   162   1      9.7999999999999972      47.039999999999999                   33.32
   163   1      9.7999999999999972                      49      31.359999999999999
   164   1      7.8399999999999954      47.039999999999999      35.280000000000001
   165   1      7.8399999999999954                      49      37.240000000000002
   166   1      9.7999999999999972      47.039999999999999      37.240000000000002
   167   1      9.7999999999999972                      49      35.280000000000001
   168   1      7.8399999999999954      47.039999999999999      39.199999999999989
   169   1      7.8399999999999954                      49      41.159999999999997
   170   1      9.7999999999999972      47.039999999999999      41.159999999999997
   171   1      9.7999999999999972                      49      39.199999999999989
   172   1      7.8399999999999954      47.039999999999999      43.119999999999997
   173   1      9.7999999999999972      47.039999999999999      45.079999999999998
   174   1      9.7999999999999972                      49      43.119999999999997
   175   1      7.8399999999999954      47.039999999999999      47.039999999999999
   176   1      9.7999999999999972      47.039999999999999                      49
   177   1      9.7999999999999972                      49      47.039999999999999
   178   1      9.7999999999999972      50.959999999999994                   33.32
   179   1      9.7999999999999972      50.959999999999994      37.240000000000002
   180   1      7.8399999999999954      50.959999999999994      39.199999999999989
   181   1      9.7999999999999972      50.959999999999994      41.159999999999997
   182   1      9.7999999999999972      52.919999999999987      39.199999999999989
   183   1      9.7999999999999972      50.959999999999994      45.079999999999998
   184   1      13.719999999999997      19.599999999999994      37.240000000000002
   185   1      13.719999999999997      21.559999999999999      35.280000000000001
   186   1      13.719999999999997      19.599999999999994      41.159999999999997
   187   1      13.719999999999997      21.559999999999999      39.199999999999989
   188   1      13.719999999999997      21.559999999999999      43.119999999999997
   189   1      13.719999999999997      23.519999999999996      29.399999999999999
   190   1      13.719999999999997      25.479999999999997      27.439999999999994
   191   1      11.759999999999998      25.479999999999997                   33.32
   192   1      13.719999999999997      23.519999999999996                   33.32
   193   1      13.719999999999997      25.479999999999997      31.359999999999999
   194   1      11.759999999999998      23.519999999999996      35.280000000000001
   195   1      11.759999999999998      25.479999999999997      37.240000000000002
   196   1      13.719999999999997      23.519999999999996      37.240000000000002
   197   1      13.719999999999997      25.479999999999997      35.280000000000001
   198   1      11.759999999999998      23.519999999999996      39.199999999999989
   199   1      11.759999999999998      25.479999999999997      41.159999999999997
   200   1      13.719999999999997      23.519999999999996      41.159999999999997
   201   1      13.719999999999997      25.479999999999997      39.199999999999989
   202   1      11.759999999999998      23.519999999999996      43.119999999999997
   203   1      11.759999999999998      25.479999999999997      45.079999999999998
   204   1      13.719999999999997      23.519999999999996      45.079999999999998
   205   1      13.719999999999997      25.479999999999997      43.119999999999997
   206   1      13.719999999999997      23.519999999999996                      49
   207   1      13.719999999999997      25.479999999999997      47.039999999999999
   208   1      13.719999999999997      25.479999999999997      50.959999999999994
   209   1      13.719999999999997      27.439999999999994      25.479999999999997
   210   1      13.719999999999997      29.399999999999999      23.519999999999996
   211   1      11.759999999999998      27.439999999999994      27.439999999999994
   212   1      11.759999999999998      29.399999999999999      29.399999999999999
   213   1      13.719999999999997      27.439999999999994      29.399999999999999
   214   1      13.719999999999997      29.399999999999999      27.439999999999994
   215   1      11.759999999999998      27.439999999999994      31.359999999999999
   216   1      11.759999999999998      29.399999999999999                   33.32
   217   1      13.719999999999997      27.439999999999994                   33.32
   218   1      13.719999999999997      29.399999999999999      31.359999999999999
   219   1      11.759999999999998      27.439999999999994      35.280000000000001
   220   1      11.759999999999998      29.399999999999999      37.240000000000002
   221   1      13.719999999999997      27.439999999999994      37.240000000000002
   222   1      13.719999999999997      29.399999999999999      35.280000000000001
   223   1      11.759999999999998      27.439999999999994      39.199999999999989
   224   1      11.759999999999998      29.399999999999999      41.159999999999997
   225   1      13.719999999999997      27.439999999999994      41.159999999999997
   226   1      13.719999999999997      29.399999999999999      39.199999999999989
   227   1      11.759999999999998      27.439999999999994      43.119999999999997
   228   1      11.759999999999998      29.399999999999999      45.079999999999998
   229   1      13.719999999999997      27.439999999999994      45.079999999999998
   230   1      13.719999999999997      29.399999999999999      43.119999999999997
   231   1      11.759999999999998      27.439999999999994      47.039999999999999
   232   1      11.759999999999998      29.399999999999999                      49
   233   1      13.719999999999997      27.439999999999994                      49
   234   1      13.719999999999997      29.399999999999999      47.039999999999999
   235   1      11.759999999999998      27.439999999999994      50.959999999999994
   236   1      13.719999999999997      27.439999999999994      52.919999999999987
   237   1      13.719999999999997      29.399999999999999      50.959999999999994
   238   1      13.719999999999997      29.399999999999999      54.879999999999988
   239   1      11.759999999999998                   33.32      25.479999999999997
   240   1      13.719999999999997      31.359999999999999      25.479999999999997
   241   1      13.719999999999997                   33.32      23.519999999999996
   242   1      11.759999999999998      31.359999999999999      27.439999999999994
   243   1      11.759999999999998                   33.32      29.399999999999999
   244   1      13.719999999999997      31.359999999999999      29.399999999999999
   245   1      13.719999999999997                   33.32      27.439999999999994
   246   1      11.759999999999998      31.359999999999999      31.359999999999999
   247   1      11.759999999999998                   33.32                   33.32
   248   1      13.719999999999997      31.359999999999999                   33.32
   249   1      13.719999999999997                   33.32      31.359999999999999
   250   1      11.759999999999998      31.359999999999999      35.280000000000001
   251   1      11.759999999999998                   33.32      37.240000000000002
   252   1      13.719999999999997      31.359999999999999      37.240000000000002
   253   1      13.719999999999997                   33.32      35.280000000000001
   254   1      11.759999999999998      31.359999999999999      39.199999999999989
   255   1      11.759999999999998                   33.32      41.159999999999997
   256   1      13.719999999999997      31.359999999999999      41.159999999999997
   257   1      13.719999999999997                   33.32      39.199999999999989
   258   1      11.759999999999998      31.359999999999999      43.119999999999997
   259   1      11.759999999999998                   33.32      45.079999999999998
   260   1      13.719999999999997      31.359999999999999      45.079999999999998
   261   1      13.719999999999997                   33.32      43.119999999999997
   262   1      11.759999999999998      31.359999999999999      47.039999999999999
   263   1      11.759999999999998                   33.32                      49
   264   1      13.719999999999997      31.359999999999999                      49
   265   1      13.719999999999997                   33.32      47.039999999999999
   266   1      11.759999999999998      31.359999999999999      50.959999999999994
   267   1      11.759999999999998                   33.32      52.919999999999987
   268   1      13.719999999999997      31.359999999999999      52.919999999999987
   269   1      13.719999999999997                   33.32      50.959999999999994
   270   1      13.719999999999997                   33.32      54.879999999999988
   271   1      13.719999999999997      35.280000000000001      21.559999999999999
   272   1      13.719999999999997      37.240000000000002      19.599999999999994
   273   1      11.759999999999998      35.280000000000001      23.519999999999996
   274   1      11.759999999999998      37.240000000000002      25.479999999999997
   275   1      13.719999999999997      35.280000000000001      25.479999999999997
   276   1      13.719999999999997      37.240000000000002      23.519999999999996
   277   1      11.759999999999998      35.280000000000001      27.439999999999994
   278   1      11.759999999999998      37.240000000000002      29.399999999999999
   279   1      13.719999999999997      35.280000000000001      29.399999999999999
   280   1      13.719999999999997      37.240000000000002      27.439999999999994
   281   1      11.759999999999998      35.280000000000001      31.359999999999999
   282   1      11.759999999999998      37.240000000000002                   33.32
   283   1      13.719999999999997      35.280000000000001                   33.32
   284   1      13.719999999999997      37.240000000000002      31.359999999999999
   285   1      11.759999999999998      35.280000000000001      35.280000000000001
   286   1      11.759999999999998      37.240000000000002      37.240000000000002
   287   1      13.719999999999997      35.280000000000001      37.240000000000002
   288   1      13.719999999999997      37.240000000000002      35.280000000000001
   289   1      11.759999999999998      35.280000000000001      39.199999999999989
   290   1      11.759999999999998      37.240000000000002      41.159999999999997
   291   1      13.719999999999997      35.280000000000001      41.159999999999997
   292   1      13.719999999999997      37.240000000000002      39.199999999999989
   293   1      11.759999999999998      35.280000000000001      43.119999999999997
   294   1      11.759999999999998      37.240000000000002      45.079999999999998
   295   1      13.719999999999997      35.280000000000001      45.079999999999998
   296   1      13.719999999999997      37.240000000000002      43.119999999999997
   297   1      11.759999999999998      35.280000000000001      47.039999999999999
   298   1      11.759999999999998      37.240000000000002                      49
   299   1      13.719999999999997      35.280000000000001                      49
   300   1      13.719999999999997      37.240000000000002      47.039999999999999
   301   1      11.759999999999998      35.280000000000001      50.959999999999994
   302   1      11.759999999999998      37.240000000000002      52.919999999999987
   303   1      13.719999999999997      35.280000000000001      52.919999999999987
   304   1      13.719999999999997      37.240000000000002      50.959999999999994
   305   1      11.759999999999998      35.280000000000001      54.879999999999988
   306   1      13.719999999999997      35.280000000000001      56.839999999999989
   307   1      13.719999999999997      37.240000000000002      54.879999999999988
   308   1      13.719999999999997      37.240000000000002      58.799999999999997
   309   1      13.719999999999997      39.199999999999989      21.559999999999999
   310   1      13.719999999999997      41.159999999999997      19.599999999999994
   311   1      11.759999999999998      39.199999999999989      23.519999999999996
   312   1      11.759999999999998      41.159999999999997      25.479999999999997
   313   1      13.719999999999997      39.199999999999989      25.479999999999997
   314   1      13.719999999999997      41.159999999999997      23.519999999999996
   315   1      11.759999999999998      39.199999999999989      27.439999999999994
   316   1      11.759999999999998      41.159999999999997      29.399999999999999
   317   1      13.719999999999997      39.199999999999989      29.399999999999999
   318   1      13.719999999999997      41.159999999999997      27.439999999999994
   319   1      11.759999999999998      39.199999999999989      31.359999999999999
   320   1      11.759999999999998      41.159999999999997                   33.32
   321   1      13.719999999999997      39.199999999999989                   33.32
   322   1      13.719999999999997      41.159999999999997      31.359999999999999
   323   1      11.759999999999998      39.199999999999989      35.280000000000001
   324   1      11.759999999999998      41.159999999999997      37.240000000000002
   325   1      13.719999999999997      39.199999999999989      37.240000000000002
   326   1      13.719999999999997      41.159999999999997      35.280000000000001
   327   1      11.759999999999998      39.199999999999989      39.199999999999989
   328   1      11.759999999999998      41.159999999999997      41.159999999999997
   329   1      13.719999999999997      39.199999999999989      41.159999999999997
   330   1      13.719999999999997      41.159999999999997      39.199999999999989
   331   1      11.759999999999998      39.199999999999989      43.119999999999997
   332   1      11.759999999999998      41.159999999999997      45.079999999999998
   333   1      13.719999999999997      39.199999999999989      45.079999999999998
   334   1      13.719999999999997      41.159999999999997      43.119999999999997
   335   1      11.759999999999998      39.199999999999989      47.039999999999999
   336   1      11.759999999999998      41.159999999999997                      49
   337   1      13.719999999999997      39.199999999999989                      49
   338   1      13.719999999999997      41.159999999999997      47.039999999999999
   339   1      11.759999999999998      39.199999999999989      50.959999999999994
   340   1      11.759999999999998      41.159999999999997      52.919999999999987
   341   1      13.719999999999997      39.199999999999989      52.919999999999987
   342   1      13.719999999999997      41.159999999999997      50.959999999999994
   343   1      11.759999999999998      39.199999999999989      54.879999999999988
   344   1      13.719999999999997      39.199999999999989      56.839999999999989
   345   1      13.719999999999997      41.159999999999997      54.879999999999988
   346   1      13.719999999999997      41.159999999999997      58.799999999999997
   347   1      13.719999999999997      43.119999999999997      21.559999999999999
   348   1      11.759999999999998      43.119999999999997      23.519999999999996
   349   1      11.759999999999998      45.079999999999998      25.479999999999997
   350   1      13.719999999999997      43.119999999999997      25.479999999999997
   351   1      13.719999999999997      45.079999999999998      23.519999999999996
   352   1      11.759999999999998      43.119999999999997      27.439999999999994
   353   1      11.759999999999998      45.079999999999998      29.399999999999999
   354   1      13.719999999999997      43.119999999999997      29.399999999999999
   355   1      13.719999999999997      45.079999999999998      27.439999999999994
   356   1      11.759999999999998      43.119999999999997      31.359999999999999
   357   1      11.759999999999998      45.079999999999998                   33.32
   358   1      13.719999999999997      43.119999999999997                   33.32