model_files/Fe/Fe_30000/Fe_331/data.Fe_331_fcc_30041 (written by ASE) 

30041 	 atoms 
1  atom types
0.0                     114  xlo xhi
0.0                     114  ylo yhi
0.0                     114  zlo zhi


Atoms 

     1   1      1.4349999999999952      55.964999999999982      55.964999999999982
     2   1      1.4349999999999952      55.964999999999982      58.834999999999994
     3   1      1.4349999999999952      58.834999999999994      55.964999999999982
     4   1      113.99999999999999      57.399999999999991      57.399999999999991
     5   1      1.4349999999999952      58.834999999999994      58.834999999999994
     6   1      4.3049999999999926      53.094999999999992      53.094999999999992
     7   1      4.3049999999999926      53.094999999999992      55.964999999999982
     8   1      4.3049999999999926      53.094999999999992      58.834999999999994
     9   1      4.3049999999999926      53.094999999999992      61.704999999999977
    10   1      4.3049999999999926      55.964999999999982      53.094999999999992
    11   1      2.8699999999999974       54.52999999999998       54.52999999999998
    12   1      4.3049999999999926      55.964999999999982      55.964999999999982
    13   1      2.8699999999999974       54.52999999999998      57.399999999999991
    14   1      4.3049999999999926      55.964999999999982      58.834999999999994
    15   1      2.8699999999999974       54.52999999999998      60.269999999999982
    16   1      4.3049999999999926      55.964999999999982      61.704999999999977
    17   1      4.3049999999999926      58.834999999999994      53.094999999999992
    18   1      2.8699999999999974      57.399999999999991       54.52999999999998
    19   1      4.3049999999999926      58.834999999999994      55.964999999999982
    20   1      2.8699999999999974      57.399999999999991      57.399999999999991
    21   1      4.3049999999999926      58.834999999999994      58.834999999999994
    22   1      2.8699999999999974      57.399999999999991      60.269999999999982
    23   1      4.3049999999999926      58.834999999999994      61.704999999999977
    24   1      4.3049999999999926      61.704999999999977      53.094999999999992
    25   1      2.8699999999999974      60.269999999999982       54.52999999999998
    26   1      4.3049999999999926      61.704999999999977      55.964999999999982
    27   1      2.8699999999999974      60.269999999999982      57.399999999999991
    28   1      4.3049999999999926      61.704999999999977      58.834999999999994
    29   1      2.8699999999999974      60.269999999999982      60.269999999999982
    30   1      4.3049999999999926      61.704999999999977      61.704999999999977
    31   1      7.1749999999999972      50.224999999999987      53.094999999999992
    32   1      7.1749999999999972      50.224999999999987      55.964999999999982
    33   1      7.1749999999999972      50.224999999999987      58.834999999999994
    34   1      7.1749999999999972      50.224999999999987      61.704999999999977
    35   1      7.1749999999999972      53.094999999999992      50.224999999999987
    36   1      7.1749999999999972      53.094999999999992      53.094999999999992
    37   1      5.7399999999999949      51.659999999999982       54.52999999999998
    38   1      7.1749999999999972      53.094999999999992      55.964999999999982
    39   1      5.7399999999999949      51.659999999999982      57.399999999999991
    40   1      7.1749999999999972      53.094999999999992      58.834999999999994
    41   1      5.7399999999999949      51.659999999999982      60.269999999999982
    42   1      7.1749999999999972      53.094999999999992      61.704999999999977
    43   1      7.1749999999999972      53.094999999999992      64.574999999999989
    44   1      7.1749999999999972      55.964999999999982      50.224999999999987
    45   1      5.7399999999999949       54.52999999999998      51.659999999999982
    46   1      7.1749999999999972      55.964999999999982      53.094999999999992
    47   1      5.7399999999999949       54.52999999999998       54.52999999999998
    48   1      7.1749999999999972      55.964999999999982      55.964999999999982
    49   1      5.7399999999999949       54.52999999999998      57.399999999999991
    50   1      7.1749999999999972      55.964999999999982      58.834999999999994
    51   1      5.7399999999999949       54.52999999999998      60.269999999999982
    52   1      7.1749999999999972      55.964999999999982      61.704999999999977
    53   1      5.7399999999999949       54.52999999999998      63.139999999999979
    54   1      7.1749999999999972      55.964999999999982      64.574999999999989
    55   1      7.1749999999999972      58.834999999999994      50.224999999999987
    56   1      5.7399999999999949      57.399999999999991      51.659999999999982
    57   1      7.1749999999999972      58.834999999999994      53.094999999999992
    58   1      5.7399999999999949      57.399999999999991       54.52999999999998
    59   1      7.1749999999999972      58.834999999999994      55.964999999999982
    60   1      5.7399999999999949      57.399999999999991      57.399999999999991
    61   1      7.1749999999999972      58.834999999999994      58.834999999999994
    62   1      5.7399999999999949      57.399999999999991      60.269999999999982
    63   1      7.1749999999999972      58.834999999999994      61.704999999999977
    64   1      5.7399999999999949      57.399999999999991      63.139999999999979
    65   1      7.1749999999999972      58.834999999999994      64.574999999999989
    66   1      7.1749999999999972      61.704999999999977      50.224999999999987
    67   1      5.7399999999999949      60.269999999999982      51.659999999999982
    68   1      7.1749999999999972      61.704999999999977      53.094999999999992
    69   1      5.7399999999999949      60.269999999999982       54.52999999999998
    70   1      7.1749999999999972      61.704999999999977      55.964999999999982
    71   1      5.7399999999999949      60.269999999999982      57.399999999999991
    72   1      7.1749999999999972      61.704999999999977      58.834999999999994
    73   1      5.7399999999999949      60.269999999999982      60.269999999999982
    74   1      7.1749999999999972      61.704999999999977      61.704999999999977
    75   1      5.7399999999999949      60.269999999999982      63.139999999999979
    76   1      7.1749999999999972      61.704999999999977      64.574999999999989
    77   1      7.1749999999999972      64.574999999999989      53.094999999999992
    78   1      5.7399999999999949      63.139999999999979       54.52999999999998
    79   1      7.1749999999999972      64.574999999999989      55.964999999999982
    80   1      5.7399999999999949      63.139999999999979      57.399999999999991
    81   1      7.1749999999999972      64.574999999999989      58.834999999999994
    82   1      5.7399999999999949      63.139999999999979      60.269999999999982
    83   1      7.1749999999999972      64.574999999999989      61.704999999999977
    84   1      10.044999999999993       47.35499999999999      53.094999999999992
    85   1      10.044999999999993       47.35499999999999      55.964999999999982
    86   1      10.044999999999993       47.35499999999999      58.834999999999994
    87   1      10.044999999999993       47.35499999999999      61.704999999999977
    88   1      10.044999999999993      50.224999999999987      50.224999999999987
    89   1      10.044999999999993      50.224999999999987      53.094999999999992
    90   1      8.6099999999999905      48.789999999999992       54.52999999999998
    91   1      10.044999999999993      50.224999999999987      55.964999999999982
    92   1      8.6099999999999905      48.789999999999992      57.399999999999991
    93   1      10.044999999999993      50.224999999999987      58.834999999999994
    94   1      8.6099999999999905      48.789999999999992      60.269999999999982
    95   1      10.044999999999993      50.224999999999987      61.704999999999977
    96   1      10.044999999999993      50.224999999999987      64.574999999999989
    97   1      10.044999999999993      53.094999999999992       47.35499999999999
    98   1      10.044999999999993      53.094999999999992      50.224999999999987
    99   1      8.6099999999999905      51.659999999999982      51.659999999999982
   100   1      10.044999999999993      53.094999999999992      53.094999999999992
   101   1      8.6099999999999905      51.659999999999982       54.52999999999998
   102   1      10.044999999999993      53.094999999999992      55.964999999999982
   103   1      8.6099999999999905      51.659999999999982      57.399999999999991
   104   1      10.044999999999993      53.094999999999992      58.834999999999994
   105   1      8.6099999999999905      51.659999999999982      60.269999999999982
   106   1      10.044999999999993      53.094999999999992      61.704999999999977
   107   1      8.6099999999999905      51.659999999999982      63.139999999999979
   108   1      10.044999999999993      53.094999999999992      64.574999999999989
   109   1      10.044999999999993      53.094999999999992      67.444999999999993
   110   1      10.044999999999993      55.964999999999982       47.35499999999999
   111   1      8.6099999999999905       54.52999999999998      48.789999999999992
   112   1      10.044999999999993      55.964999999999982      50.224999999999987
   113   1      8.6099999999999905       54.52999999999998      51.659999999999982
   114   1      10.044999999999993      55.964999999999982      53.094999999999992
   115   1      8.6099999999999905       54.52999999999998       54.52999999999998
   116   1      10.044999999999993      55.964999999999982      55.964999999999982
   117   1      8.6099999999999905       54.52999999999998      57.399999999999991
   118   1      10.044999999999993      55.964999999999982      58.834999999999994
   119   1      8.6099999999999905       54.52999999999998      60.269999999999982
   120   1      10.044999999999993      55.964999999999982      61.704999999999977
   121   1      8.6099999999999905       54.52999999999998      63.139999999999979
   122   1      10.044999999999993      55.964999999999982      64.574999999999989
   123   1      8.6099999999999905       54.52999999999998      66.009999999999991
   124   1      10.044999999999993      55.964999999999982      67.444999999999993
   125   1      10.044999999999993      58.834999999999994       47.35499999999999
   126   1      8.6099999999999905      57.399999999999991      48.789999999999992
   127   1      10.044999999999993      58.834999999999994      50.224999999999987
   128   1      8.6099999999999905      57.399999999999991      51.659999999999982
   129   1      10.044999999999993      58.834999999999994      53.094999999999992
   130   1      8.6099999999999905      57.399999999999991       54.52999999999998
   131   1      10.044999999999993      58.834999999999994      55.964999999999982
   132   1      8.6099999999999905      57.399999999999991      57.399999999999991
   133   1      10.044999999999993      58.834999999999994      58.834999999999994
   134   1      8.6099999999999905      57.399999999999991      60.269999999999982
   135   1      10.044999999999993      58.834999999999994      61.704999999999977
   136   1      8.6099999999999905      57.399999999999991      63.139999999999979
   137   1      10.044999999999993      58.834999999999994      64.574999999999989
   138   1      8.6099999999999905      57.399999999999991      66.009999999999991
   139   1      10.044999999999993      58.834999999999994      67.444999999999993
   140   1      10.044999999999993      61.704999999999977       47.35499999999999
   141   1      8.6099999999999905      60.269999999999982      48.789999999999992
   142   1      10.044999999999993      61.704999999999977      50.224999999999987
   143   1      8.6099999999999905      60.269999999999982      51.659999999999982
   144   1      10.044999999999993      61.704999999999977      53.094999999999992
   145   1      8.6099999999999905      60.269999999999982       54.52999999999998
   146   1      10.044999999999993      61.704999999999977      55.964999999999982
   147   1      8.6099999999999905      60.269999999999982      57.399999999999991
   148   1      10.044999999999993      61.704999999999977      58.834999999999994
   149   1      8.6099999999999905      60.269999999999982      60.269999999999982
   150   1      10.044999999999993      61.704999999999977      61.704999999999977
   151   1      8.6099999999999905      60.269999999999982      63.139999999999979
   152   1      10.044999999999993      61.704999999999977      64.574999999999989
   153   1      8.6099999999999905      60.269999999999982      66.009999999999991
   154   1      10.044999999999993      61.704999999999977      67.444999999999993
   155   1      10.044999999999993      64.574999999999989      50.224999999999987
   156   1      8.6099999999999905      63.139999999999979      51.659999999999982
   157   1      10.044999999999993      64.574999999999989      53.094999999999992
   158   1      8.6099999999999905      63.139999999999979       54.52999999999998
   159   1      10.044999999999993      64.574999999999989      55.964999999999982
   160   1      8.6099999999999905      63.139999999999979      57.399999999999991
   161   1      10.044999999999993      64.574999999999989      58.834999999999994
   162   1      8.6099999999999905      63.139999999999979      60.269999999999982
   163   1      10.044999999999993      64.574999999999989      61.704999999999977
   164   1      8.6099999999999905      63.139999999999979      63.139999999999979
   165   1      10.044999999999993      64.574999999999989      64.574999999999989
   166   1      10.044999999999993      67.444999999999993      53.094999999999992
   167   1      8.6099999999999905      66.009999999999991       54.52999999999998
   168   1      10.044999999999993      67.444999999999993      55.964999999999982
   169   1      8.6099999999999905      66.009999999999991      57.399999999999991
   170   1      10.044999999999993      67.444999999999993      58.834999999999994
   171   1      8.6099999999999905      66.009999999999991      60.269999999999982
   172   1      10.044999999999993      67.444999999999993      61.704999999999977
   173   1      12.914999999999992      44.484999999999992      53.094999999999992
   174   1      12.914999999999992      44.484999999999992      55.964999999999982
   175   1      12.914999999999992      44.484999999999992      58.834999999999994
   176   1      12.914999999999992      44.484999999999992      61.704999999999977
   177   1      12.914999999999992       47.35499999999999       47.35499999999999
   178   1      12.914999999999992       47.35499999999999      50.224999999999987
   179   1      12.914999999999992       47.35499999999999      53.094999999999992
   180   1       11.47999999999999       45.91999999999998       54.52999999999998
   181   1      12.914999999999992       47.35499999999999      55.964999999999982
   182   1       11.47999999999999       45.91999999999998      57.399999999999991
   183   1      12.914999999999992       47.35499999999999      58.834999999999994
   184   1       11.47999999999999       45.91999999999998      60.269999999999982
   185   1      12.914999999999992       47.35499999999999      61.704999999999977
   186   1      12.914999999999992       47.35499999999999      64.574999999999989
   187   1      12.914999999999992       47.35499999999999      67.444999999999993
   188   1      12.914999999999992      50.224999999999987       47.35499999999999
   189   1       11.47999999999999      48.789999999999992      48.789999999999992
   190   1      12.914999999999992      50.224999999999987      50.224999999999987
   191   1       11.47999999999999      48.789999999999992      51.659999999999982
   192   1      12.914999999999992      50.224999999999987      53.094999999999992
   193   1       11.47999999999999      48.789999999999992       54.52999999999998
   194   1      12.914999999999992      50.224999999999987      55.964999999999982
   195   1       11.47999999999999      48.789999999999992      57.399999999999991
   196   1      12.914999999999992      50.224999999999987      58.834999999999994
   197   1       11.47999999999999      48.789999999999992      60.269999999999982
   198   1      12.914999999999992      50.224999999999987      61.704999999999977
   199   1       11.47999999999999      48.789999999999992      63.139999999999979
   200   1      12.914999999999992      50.224999999999987      64.574999999999989
   201   1       11.47999999999999      48.789999999999992      66.009999999999991
   202   1      12.914999999999992      50.224999999999987      67.444999999999993
   203   1      12.914999999999992      53.094999999999992      44.484999999999992
   204   1      12.914999999999992      53.094999999999992       47.35499999999999
   205   1       11.47999999999999      51.659999999999982      48.789999999999992
   206   1      12.914999999999992      53.094999999999992      50.224999999999987
   207   1       11.47999999999999      51.659999999999982      51.659999999999982
   208   1      12.914999999999992      53.094999999999992      53.094999999999992
   209   1       11.47999999999999      51.659999999999982       54.52999999999998
   210   1      12.914999999999992      53.094999999999992      55.964999999999982
   211   1       11.47999999999999      51.659999999999982      57.399999999999991
   212   1      12.914999999999992      53.094999999999992      58.834999999999994
   213   1       11.47999999999999      51.659999999999982      60.269999999999982
   214   1      12.914999999999992      53.094999999999992      61.704999999999977
   215   1       11.47999999999999      51.659999999999982      63.139999999999979
   216   1      12.914999999999992      53.094999999999992      64.574999999999989
   217   1       11.47999999999999      51.659999999999982      66.009999999999991
   218   1      12.914999999999992      53.094999999999992      67.444999999999993
   219   1      12.914999999999992      53.094999999999992      70.314999999999984
   220   1      12.914999999999992      55.964999999999982      44.484999999999992
   221   1       11.47999999999999       54.52999999999998       45.91999999999998
   222   1      12.914999999999992      55.964999999999982       47.35499999999999
   223   1       11.47999999999999       54.52999999999998      48.789999999999992
   224   1      12.914999999999992      55.964999999999982      50.224999999999987
   225   1       11.47999999999999       54.52999999999998      51.659999999999982
   226   1      12.914999999999992      55.964999999999982      53.094999999999992
   227   1       11.47999999999999       54.52999999999998       54.52999999999998
   228   1      12.914999999999992      55.964999999999982      55.964999999999982
   229   1       11.47999999999999       54.52999999999998      57.399999999999991
   230   1      12.914999999999992      55.964999999999982      58.834999999999994
   231   1       11.47999999999999       54.52999999999998      60.269999999999982
   232   1      12.914999999999992      55.964999999999982      61.704999999999977
   233   1       11.47999999999999       54.52999999999998      63.139999999999979
   234   1      12.914999999999992      55.964999999999982      64.574999999999989
   235   1       11.47999999999999       54.52999999999998      66.009999999999991
   236   1      12.914999999999992      55.964999999999982      67.444999999999993
   237   1       11.47999999999999       54.52999999999998      68.879999999999981
   238   1      12.914999999999992      55.964999999999982      70.314999999999984
   239   1      12.914999999999992      58.834999999999994      44.484999999999992
   240   1       11.47999999999999      57.399999999999991       45.91999999999998
   241   1      12.914999999999992      58.834999999999994       47.35499999999999
   242   1       11.47999999999999      57.399999999999991      48.789999999999992
   243   1      12.914999999999992      58.834999999999994      50.224999999999987
   244   1       11.47999999999999      57.399999999999991      51.659999999999982
   245   1      12.914999999999992      58.834999999999994      53.094999999999992
   246   1       11.47999999999999      57.399999999999991       54.52999999999998
   247   1      12.914999999999992      58.834999999999994      55.964999999999982
   248   1       11.47999999999999      57.399999999999991      57.399999999999991
   249   1      12.914999999999992      58.834999999999994      58.834999999999994
   250   1       11.47999999999999      57.399999999999991      60.269999999999982
   251   1      12.914999999999992      58.834999999999994      61.704999999999977
   252   1       11.47999999999999      57.399999999999991      63.139999999999979
   253   1      12.914999999999992      58.834999999999994      64.574999999999989
   254   1       11.47999999999999      57.399999999999991      66.009999999999991
   255   1      12.914999999999992      58.834999999999994      67.444999999999993
   256   1       11.47999999999999      57.399999999999991      68.879999999999981
   257   1      12.914999999999992      58.834999999999994      70.314999999999984
   258   1      12.914999999999992      61.704999999999977      44.484999999999992
   259   1       11.47999999999999      60.269999999999982       45.91999999999998
   260   1      12.914999999999992      61.704999999999977       47.35499999999999
   261   1       11.47999999999999      60.269999999999982      48.789999999999992
   262   1      12.914999999999992      61.704999999999977      50.224999999999987
   263   1       11.47999999999999      60.269999999999982      51.659999999999982
   264   1      12.914999999999992      61.704999999999977      53.094999999999992
   265   1       11.47999999999999      60.269999999999982       54.52999999999998
   266   1      12.914999999999992      61.704999999999977      55.964999999999982
   267   1       11.47999999999999      60.269999999999982      57.399999999999991
   268   1      12.914999999999992      61.704999999999977      58.834999999999994
   269   1       11.47999999999999      60.269999999999982      60.269999999999982
   270   1      12.914999999999992      61.704999999999977      61.704999999999977
   271   1       11.47999999999999      60.269999999999982      63.139999999999979
   272   1      12.914999999999992      61.704999999999977      64.574999999999989
   273   1       11.47999999999999      60.269999999999982      66.009999999999991
   274   1      12.914999999999992      61.704999999999977      67.444999999999993
   275   1       11.47999999999999      60.269999999999982      68.879999999999981
   276   1      12.914999999999992      61.704999999999977      70.314999999999984
   277   1      12.914999999999992      64.574999999999989       47.35499999999999
   278   1       11.47999999999999      63.139999999999979      48.789999999999992
   279   1      12.914999999999992      64.574999999999989      50.224999999999987
   280   1       11.47999999999999      63.139999999999979      51.659999999999982
   281   1      12.914999999999992      64.574999999999989      53.094999999999992
   282   1       11.47999999999999      63.139999999999979       54.52999999999998
   283   1      12.914999999999992      64.574999999999989      55.964999999999982
   284   1       11.47999999999999      63.139999999999979      57.399999999999991
   285   1      12.914999999999992      64.574999999999989      58.834999999999994
   286   1       11.47999999999999      63.139999999999979      60.269999999999982
   287   1      12.914999999999992      64.574999999999989      61.704999999999977
   288   1       11.47999999999999      63.139999999999979      63.139999999999979
   289   1      12.914999999999992      64.574999999999989      64.574999999999989
   290   1       11.47999999999999      63.139999999999979      66.009999999999991
   291   1      12.914999999999992      64.574999999999989      67.444999999999993
   292   1      12.914999999999992      67.444999999999993       47.35499999999999
   293   1       11.47999999999999      66.009999999999991      48.789999999999992
   294   1      12.914999999999992      67.444999999999993      50.224999999999987
   295   1       11.47999999999999      66.009999999999991      51.659999999999982
   296   1      12.914999999999992      67.444999999999993      53.094999999999992
   297   1       11.47999999999999      66.009999999999991       54.52999999999998
   298   1      12.914999999999992      67.444999999999993      55.964999999999982
   299   1       11.47999999999999      66.009999999999991      57.399999999999991
   300   1      12.914999999999992      67.444999999999993      58.834999999999994
   301   1       11.47999999999999      66.009999999999991      60.269999999999982
   302   1      12.914999999999992      67.444999999999993      61.704999999999977
   303   1       11.47999999999999      66.009999999999991      63.139999999999979
   304   1      12.914999999999992      67.444999999999993      64.574999999999989
   305   1       11.47999999999999      66.009999999999991      66.009999999999991
   306   1      12.914999999999992      67.444999999999993      67.444999999999993
   307   1      12.914999999999992      70.314999999999984      53.094999999999992
   308   1       11.47999999999999      68.879999999999981       54.52999999999998
   309   1      12.914999999999992      70.314999999999984      55.964999999999982
   310   1       11.47999999999999      68.879999999999981      57.399999999999991
   311   1      12.914999999999992      70.314999999999984      58.834999999999994
   312   1       11.47999999999999      68.879999999999981      60.269999999999982
   313   1      12.914999999999992      70.314999999999984      61.704999999999977
   314   1      15.784999999999995      41.614999999999988      53.094999999999992
   315   1      15.784999999999995      41.614999999999988      55.964999999999982
   316   1      15.784999999999995      41.614999999999988      58.834999999999994
   317   1      15.784999999999995      41.614999999999988      61.704999999999977
   318   1      15.784999999999995      44.484999999999992      44.484999999999992
   319   1      15.784999999999995      44.484999999999992       47.35499999999999
   320   1      15.784999999999995      44.484999999999992      50.224999999999987
   321   1      15.784999999999995      44.484999999999992      53.094999999999992
   322   1      14.349999999999994       43.04999999999999       54.52999999999998
   323   1      15.784999999999995      44.484999999999992      55.964999999999982
   324   1      14.349999999999994       43.04999999999999      57.399999999999991
   325   1      15.784999999999995      44.484999999999992      58.834999999999994
   326   1      14.349999999999994       43.04999999999999      60.269999999999982
   327   1      15.784999999999995      44.484999999999992      61.704999999999977
   328   1      15.784999999999995      44.484999999999992      64.574999999999989
   329   1      15.784999999999995      44.484999999999992      67.444999999999993
   330   1      15.784999999999995      44.484999999999992      70.314999999999984
   331   1      15.784999999999995       47.35499999999999      44.484999999999992
   332   1      14.349999999999994       45.91999999999998       45.91999999999998
   333   1      15.784999999999995       47.35499999999999       47.35499999999999
   334   1      14.349999999999994       45.91999999999998      48.789999999999992
   335   1      15.784999999999995       47.35499999999999      50.224999999999987
   336   1      14.349999999999994       45.91999999999998      51.659999999999982
   337   1      15.784999999999995       47.35499999999999      53.094999999999992
   338   1      14.349999999999994       45.91999999999998       54.52999999999998
   339   1      15.784999999999995       47.35499999999999      55.964999999999982
   340   1      14.349999999999994       45.91999999999998      57.399999999999991
   341   1      15.784999999999995       47.35499999999999      58.834999999999994
   342   1      14.349999999999994       45.91999999999998      60.269999999999982
   343   1      15.784999999999995       47.35499999999999      61.704999999999977
   344   1      14.349999999999994       45.91999999999998      63.139999999999979
   345   1      15.784999999999995       47.35499999999999      64.574999999999989
   346   1      14.349999999999994       45.91999999999998      66.009999999999991
   347   1      15.784999999999995       47.35499999999999      67.444999999999993
   348   1      14.349999999999994       45.91999999999998      68.879999999999981
   349   1      15.784999999999995       47.35499999999999      70.314999999999984
   350   1      15.784999999999995      50.224999999999987      44.484999999999992
   351   1      14.349999999999994      48.789999999999992       45.91999999999998
   352   1      15.784999999999995      50.224999999999987       47.35499999999999
   353   1      14.349999999999994      48.789999999999992      48.789999999999992
   354   1      15.784999999999995      50.224999999999987      50.224999999999987
   355   1      14.349999999999994      48.789999999999992      51.659999999999982
   356   1      15.784999999999995      50.224999999999987      53.094999999999992
   357   1      14.349999999999994      48.789999999999992       54.52999999999998
   358   1      15.784999999999995      50.224999999999987      55.964999999999982