model_files/Co/Co_3000/Co_322/data.Co_322_hcp_2923 (written by ASE) 

2923 	 atoms 
1  atom types
0.0                      37  xlo xhi
0.0                      37  ylo yhi
0.0                      37  zlo zhi


Atoms 

     1   1      1.2550000000000026      16.315000000000001                   17.57
     2   1      1.2550000000000026                   17.57      16.315000000000001
     3   1                       0                   17.57                   17.57
     4   1      1.2550000000000026                   17.57      18.824999999999999
     5   1      1.2550000000000026      18.824999999999999                   17.57
     6   1      3.7650000000000006      13.805000000000001                   17.57
     7   1      2.5100000000000016      16.315000000000001      16.315000000000001
     8   1      3.7650000000000006      15.060000000000002      16.315000000000001
     9   1      3.7650000000000006      16.315000000000001      15.060000000000002
    10   1      2.5100000000000016      15.060000000000002                   17.57
    11   1      2.5100000000000016      16.315000000000001      18.824999999999999
    12   1      3.7650000000000006      15.060000000000002      18.824999999999999
    13   1      3.7650000000000006      16.315000000000001                   17.57
    14   1      3.7650000000000006      16.315000000000001      20.080000000000002
    15   1      3.7650000000000006                   17.57      13.805000000000001
    16   1      2.5100000000000016                   17.57      15.060000000000002
    17   1      2.5100000000000016      18.824999999999999      16.315000000000001
    18   1      3.7650000000000006                   17.57      16.315000000000001
    19   1      3.7650000000000006      18.824999999999999      15.060000000000002
    20   1      2.5100000000000016                   17.57                   17.57
    21   1      2.5100000000000016      18.824999999999999      18.824999999999999
    22   1      3.7650000000000006                   17.57      18.824999999999999
    23   1      3.7650000000000006      18.824999999999999                   17.57
    24   1      2.5100000000000016                   17.57      20.080000000000002
    25   1      3.7650000000000006                   17.57      21.334999999999997
    26   1      3.7650000000000006      18.824999999999999      20.080000000000002
    27   1      3.7650000000000006      20.080000000000002      16.315000000000001
    28   1      2.5100000000000016      20.080000000000002                   17.57
    29   1      3.7650000000000006      20.080000000000002      18.824999999999999
    30   1      3.7650000000000006      21.334999999999997                   17.57
    31   1       6.275000000000003      8.7850000000000001                   17.57
    32   1      5.0200000000000022      11.295000000000002      16.315000000000001
    33   1       6.275000000000003      10.040000000000003      16.315000000000001
    34   1       6.275000000000003      11.295000000000002      15.060000000000002
    35   1      5.0200000000000022      10.040000000000003                   17.57
    36   1      5.0200000000000022      11.295000000000002      18.824999999999999
    37   1       6.275000000000003      10.040000000000003      18.824999999999999
    38   1       6.275000000000003      11.295000000000002                   17.57
    39   1       6.275000000000003      11.295000000000002      20.080000000000002
    40   1      5.0200000000000022      13.805000000000001      13.805000000000001
    41   1       6.275000000000003      12.550000000000001      13.805000000000001
    42   1       6.275000000000003      13.805000000000001      12.550000000000001
    43   1      5.0200000000000022      12.550000000000001      15.060000000000002
    44   1      5.0200000000000022      13.805000000000001      16.315000000000001
    45   1       6.275000000000003      12.550000000000001      16.315000000000001
    46   1       6.275000000000003      13.805000000000001      15.060000000000002
    47   1      5.0200000000000022      12.550000000000001                   17.57
    48   1      5.0200000000000022      13.805000000000001      18.824999999999999
    49   1       6.275000000000003      12.550000000000001      18.824999999999999
    50   1       6.275000000000003      13.805000000000001                   17.57
    51   1      5.0200000000000022      12.550000000000001      20.080000000000002
    52   1      5.0200000000000022      13.805000000000001      21.334999999999997
    53   1       6.275000000000003      12.550000000000001      21.334999999999997
    54   1       6.275000000000003      13.805000000000001      20.080000000000002
    55   1       6.275000000000003      13.805000000000001                   22.59
    56   1      5.0200000000000022      16.315000000000001      11.295000000000002
    57   1       6.275000000000003      15.060000000000002      11.295000000000002
    58   1       6.275000000000003      16.315000000000001      10.040000000000003
    59   1      5.0200000000000022      15.060000000000002      12.550000000000001
    60   1      5.0200000000000022      16.315000000000001      13.805000000000001
    61   1       6.275000000000003      15.060000000000002      13.805000000000001
    62   1       6.275000000000003      16.315000000000001      12.550000000000001
    63   1      5.0200000000000022      15.060000000000002      15.060000000000002
    64   1      5.0200000000000022      16.315000000000001      16.315000000000001
    65   1       6.275000000000003      15.060000000000002      16.315000000000001
    66   1       6.275000000000003      16.315000000000001      15.060000000000002
    67   1      5.0200000000000022      15.060000000000002                   17.57
    68   1      5.0200000000000022      16.315000000000001      18.824999999999999
    69   1       6.275000000000003      15.060000000000002      18.824999999999999
    70   1       6.275000000000003      16.315000000000001                   17.57
    71   1      5.0200000000000022      15.060000000000002      20.080000000000002
    72   1      5.0200000000000022      16.315000000000001      21.334999999999997
    73   1       6.275000000000003      15.060000000000002      21.334999999999997
    74   1       6.275000000000003      16.315000000000001      20.080000000000002
    75   1      5.0200000000000022      15.060000000000002                   22.59
    76   1      5.0200000000000022      16.315000000000001      23.845000000000002
    77   1       6.275000000000003      15.060000000000002      23.845000000000002
    78   1       6.275000000000003      16.315000000000001                   22.59
    79   1       6.275000000000003      16.315000000000001      25.100000000000001
    80   1       6.275000000000003                   17.57      8.7850000000000001
    81   1      5.0200000000000022                   17.57      10.040000000000003
    82   1      5.0200000000000022      18.824999999999999      11.295000000000002
    83   1       6.275000000000003                   17.57      11.295000000000002
    84   1       6.275000000000003      18.824999999999999      10.040000000000003
    85   1      5.0200000000000022                   17.57      12.550000000000001
    86   1      5.0200000000000022      18.824999999999999      13.805000000000001
    87   1       6.275000000000003                   17.57      13.805000000000001
    88   1       6.275000000000003      18.824999999999999      12.550000000000001
    89   1      5.0200000000000022                   17.57      15.060000000000002
    90   1      5.0200000000000022      18.824999999999999      16.315000000000001
    91   1       6.275000000000003                   17.57      16.315000000000001
    92   1       6.275000000000003      18.824999999999999      15.060000000000002
    93   1      5.0200000000000022                   17.57                   17.57
    94   1      5.0200000000000022      18.824999999999999      18.824999999999999
    95   1       6.275000000000003                   17.57      18.824999999999999
    96   1       6.275000000000003      18.824999999999999                   17.57
    97   1      5.0200000000000022                   17.57      20.080000000000002
    98   1      5.0200000000000022      18.824999999999999      21.334999999999997
    99   1       6.275000000000003                   17.57      21.334999999999997
   100   1       6.275000000000003      18.824999999999999      20.080000000000002
   101   1      5.0200000000000022                   17.57                   22.59
   102   1      5.0200000000000022      18.824999999999999      23.845000000000002
   103   1       6.275000000000003                   17.57      23.845000000000002
   104   1       6.275000000000003      18.824999999999999                   22.59
   105   1      5.0200000000000022                   17.57      25.100000000000001
   106   1       6.275000000000003                   17.57                  26.355
   107   1       6.275000000000003      18.824999999999999      25.100000000000001
   108   1       6.275000000000003      20.080000000000002      11.295000000000002
   109   1      5.0200000000000022      20.080000000000002      12.550000000000001
   110   1      5.0200000000000022      21.334999999999997      13.805000000000001
   111   1       6.275000000000003      20.080000000000002      13.805000000000001
   112   1       6.275000000000003      21.334999999999997      12.550000000000001
   113   1      5.0200000000000022      20.080000000000002      15.060000000000002
   114   1      5.0200000000000022      21.334999999999997      16.315000000000001
   115   1       6.275000000000003      20.080000000000002      16.315000000000001
   116   1       6.275000000000003      21.334999999999997      15.060000000000002
   117   1      5.0200000000000022      20.080000000000002                   17.57
   118   1      5.0200000000000022      21.334999999999997      18.824999999999999
   119   1       6.275000000000003      20.080000000000002      18.824999999999999
   120   1       6.275000000000003      21.334999999999997                   17.57
   121   1      5.0200000000000022      20.080000000000002      20.080000000000002
   122   1      5.0200000000000022      21.334999999999997      21.334999999999997
   123   1       6.275000000000003      20.080000000000002      21.334999999999997
   124   1       6.275000000000003      21.334999999999997      20.080000000000002
   125   1      5.0200000000000022      20.080000000000002                   22.59
   126   1       6.275000000000003      20.080000000000002      23.845000000000002
   127   1       6.275000000000003      21.334999999999997                   22.59
   128   1       6.275000000000003                   22.59      13.805000000000001
   129   1      5.0200000000000022                   22.59      15.060000000000002
   130   1      5.0200000000000022      23.845000000000002      16.315000000000001
   131   1       6.275000000000003                   22.59      16.315000000000001
   132   1       6.275000000000003      23.845000000000002      15.060000000000002
   133   1      5.0200000000000022                   22.59                   17.57
   134   1      5.0200000000000022      23.845000000000002      18.824999999999999
   135   1       6.275000000000003                   22.59      18.824999999999999
   136   1       6.275000000000003      23.845000000000002                   17.57
   137   1      5.0200000000000022                   22.59      20.080000000000002
   138   1       6.275000000000003                   22.59      21.334999999999997
   139   1       6.275000000000003      23.845000000000002      20.080000000000002
   140   1       6.275000000000003      25.100000000000001      16.315000000000001
   141   1      5.0200000000000022      25.100000000000001                   17.57
   142   1       6.275000000000003      25.100000000000001      18.824999999999999
   143   1       6.275000000000003                  26.355                   17.57
   144   1      8.7850000000000001       6.275000000000003                   17.57
   145   1      7.5300000000000011      8.7850000000000001      16.315000000000001
   146   1      8.7850000000000001      7.5300000000000011      16.315000000000001
   147   1      8.7850000000000001      8.7850000000000001      15.060000000000002
   148   1      7.5300000000000011      7.5300000000000011                   17.57
   149   1      7.5300000000000011      8.7850000000000001      18.824999999999999
   150   1      8.7850000000000001      7.5300000000000011      18.824999999999999
   151   1      8.7850000000000001      8.7850000000000001                   17.57
   152   1      8.7850000000000001      8.7850000000000001      20.080000000000002
   153   1      7.5300000000000011      11.295000000000002      13.805000000000001
   154   1      8.7850000000000001      10.040000000000003      13.805000000000001
   155   1      8.7850000000000001      11.295000000000002      12.550000000000001
   156   1      7.5300000000000011      10.040000000000003      15.060000000000002
   157   1      7.5300000000000011      11.295000000000002      16.315000000000001
   158   1      8.7850000000000001      10.040000000000003      16.315000000000001
   159   1      8.7850000000000001      11.295000000000002      15.060000000000002
   160   1      7.5300000000000011      10.040000000000003                   17.57
   161   1      7.5300000000000011      11.295000000000002      18.824999999999999
   162   1      8.7850000000000001      10.040000000000003      18.824999999999999
   163   1      8.7850000000000001      11.295000000000002                   17.57
   164   1      7.5300000000000011      10.040000000000003      20.080000000000002
   165   1      7.5300000000000011      11.295000000000002      21.334999999999997
   166   1      8.7850000000000001      10.040000000000003      21.334999999999997
   167   1      8.7850000000000001      11.295000000000002      20.080000000000002
   168   1      8.7850000000000001      11.295000000000002                   22.59
   169   1      7.5300000000000011      13.805000000000001      11.295000000000002
   170   1      8.7850000000000001      12.550000000000001      11.295000000000002
   171   1      8.7850000000000001      13.805000000000001      10.040000000000003
   172   1      7.5300000000000011      12.550000000000001      12.550000000000001
   173   1      7.5300000000000011      13.805000000000001      13.805000000000001
   174   1      8.7850000000000001      12.550000000000001      13.805000000000001
   175   1      8.7850000000000001      13.805000000000001      12.550000000000001
   176   1      7.5300000000000011      12.550000000000001      15.060000000000002
   177   1      7.5300000000000011      13.805000000000001      16.315000000000001
   178   1      8.7850000000000001      12.550000000000001      16.315000000000001
   179   1      8.7850000000000001      13.805000000000001      15.060000000000002
   180   1      7.5300000000000011      12.550000000000001                   17.57
   181   1      7.5300000000000011      13.805000000000001      18.824999999999999
   182   1      8.7850000000000001      12.550000000000001      18.824999999999999
   183   1      8.7850000000000001      13.805000000000001                   17.57
   184   1      7.5300000000000011      12.550000000000001      20.080000000000002
   185   1      7.5300000000000011      13.805000000000001      21.334999999999997
   186   1      8.7850000000000001      12.550000000000001      21.334999999999997
   187   1      8.7850000000000001      13.805000000000001      20.080000000000002
   188   1      7.5300000000000011      12.550000000000001                   22.59
   189   1      7.5300000000000011      13.805000000000001      23.845000000000002
   190   1      8.7850000000000001      12.550000000000001      23.845000000000002
   191   1      8.7850000000000001      13.805000000000001                   22.59
   192   1      8.7850000000000001      13.805000000000001      25.100000000000001
   193   1      7.5300000000000011      16.315000000000001      8.7850000000000001
   194   1      8.7850000000000001      15.060000000000002      8.7850000000000001
   195   1      8.7850000000000001      16.315000000000001      7.5300000000000011
   196   1      7.5300000000000011      15.060000000000002      10.040000000000003
   197   1      7.5300000000000011      16.315000000000001      11.295000000000002
   198   1      8.7850000000000001      15.060000000000002      11.295000000000002
   199   1      8.7850000000000001      16.315000000000001      10.040000000000003
   200   1      7.5300000000000011      15.060000000000002      12.550000000000001
   201   1      7.5300000000000011      16.315000000000001      13.805000000000001
   202   1      8.7850000000000001      15.060000000000002      13.805000000000001
   203   1      8.7850000000000001      16.315000000000001      12.550000000000001
   204   1      7.5300000000000011      15.060000000000002      15.060000000000002
   205   1      7.5300000000000011      16.315000000000001      16.315000000000001
   206   1      8.7850000000000001      15.060000000000002      16.315000000000001
   207   1      8.7850000000000001      16.315000000000001      15.060000000000002
   208   1      7.5300000000000011      15.060000000000002                   17.57
   209   1      7.5300000000000011      16.315000000000001      18.824999999999999
   210   1      8.7850000000000001      15.060000000000002      18.824999999999999
   211   1      8.7850000000000001      16.315000000000001                   17.57
   212   1      7.5300000000000011      15.060000000000002      20.080000000000002
   213   1      7.5300000000000011      16.315000000000001      21.334999999999997
   214   1      8.7850000000000001      15.060000000000002      21.334999999999997
   215   1      8.7850000000000001      16.315000000000001      20.080000000000002
   216   1      7.5300000000000011      15.060000000000002                   22.59
   217   1      7.5300000000000011      16.315000000000001      23.845000000000002
   218   1      8.7850000000000001      15.060000000000002      23.845000000000002
   219   1      8.7850000000000001      16.315000000000001                   22.59
   220   1      7.5300000000000011      15.060000000000002      25.100000000000001
   221   1      7.5300000000000011      16.315000000000001                  26.355
   222   1      8.7850000000000001      15.060000000000002                  26.355
   223   1      8.7850000000000001      16.315000000000001      25.100000000000001
   224   1      8.7850000000000001      16.315000000000001      27.610000000000003
   225   1      8.7850000000000001                   17.57       6.275000000000003
   226   1      7.5300000000000011                   17.57      7.5300000000000011
   227   1      7.5300000000000011      18.824999999999999      8.7850000000000001
   228   1      8.7850000000000001                   17.57      8.7850000000000001
   229   1      8.7850000000000001      18.824999999999999      7.5300000000000011
   230   1      7.5300000000000011                   17.57      10.040000000000003
   231   1      7.5300000000000011      18.824999999999999      11.295000000000002
   232   1      8.7850000000000001                   17.57      11.295000000000002
   233   1      8.7850000000000001      18.824999999999999      10.040000000000003
   234   1      7.5300000000000011                   17.57      12.550000000000001
   235   1      7.5300000000000011      18.824999999999999      13.805000000000001
   236   1      8.7850000000000001                   17.57      13.805000000000001
   237   1      8.7850000000000001      18.824999999999999      12.550000000000001
   238   1      7.5300000000000011                   17.57      15.060000000000002
   239   1      7.5300000000000011      18.824999999999999      16.315000000000001
   240   1      8.7850000000000001                   17.57      16.315000000000001
   241   1      8.7850000000000001      18.824999999999999      15.060000000000002
   242   1      7.5300000000000011                   17.57                   17.57
   243   1      7.5300000000000011      18.824999999999999      18.824999999999999
   244   1      8.7850000000000001                   17.57      18.824999999999999
   245   1      8.7850000000000001      18.824999999999999                   17.57
   246   1      7.5300000000000011                   17.57      20.080000000000002
   247   1      7.5300000000000011      18.824999999999999      21.334999999999997
   248   1      8.7850000000000001                   17.57      21.334999999999997
   249   1      8.7850000000000001      18.824999999999999      20.080000000000002
   250   1      7.5300000000000011                   17.57                   22.59
   251   1      7.5300000000000011      18.824999999999999      23.845000000000002
   252   1      8.7850000000000001                   17.57      23.845000000000002
   253   1      8.7850000000000001      18.824999999999999                   22.59
   254   1      7.5300000000000011                   17.57      25.100000000000001
   255   1      7.5300000000000011      18.824999999999999                  26.355
   256   1      8.7850000000000001                   17.57                  26.355
   257   1      8.7850000000000001      18.824999999999999      25.100000000000001
   258   1      7.5300000000000011                   17.57      27.610000000000003
   259   1      8.7850000000000001                   17.57      28.864999999999998
   260   1      8.7850000000000001      18.824999999999999      27.610000000000003
   261   1      8.7850000000000001      20.080000000000002      8.7850000000000001
   262   1      7.5300000000000011      20.080000000000002      10.040000000000003
   263   1      7.5300000000000011      21.334999999999997      11.295000000000002
   264   1      8.7850000000000001      20.080000000000002      11.295000000000002
   265   1      8.7850000000000001      21.334999999999997      10.040000000000003
   266   1      7.5300000000000011      20.080000000000002      12.550000000000001
   267   1      7.5300000000000011      21.334999999999997      13.805000000000001
   268   1      8.7850000000000001      20.080000000000002      13.805000000000001
   269   1      8.7850000000000001      21.334999999999997      12.550000000000001
   270   1      7.5300000000000011      20.080000000000002      15.060000000000002
   271   1      7.5300000000000011      21.334999999999997      16.315000000000001
   272   1      8.7850000000000001      20.080000000000002      16.315000000000001
   273   1      8.7850000000000001      21.334999999999997      15.060000000000002
   274   1      7.5300000000000011      20.080000000000002                   17.57
   275   1      7.5300000000000011      21.334999999999997      18.824999999999999
   276   1      8.7850000000000001      20.080000000000002      18.824999999999999
   277   1      8.7850000000000001      21.334999999999997                   17.57
   278   1      7.5300000000000011      20.080000000000002      20.080000000000002
   279   1      7.5300000000000011      21.334999999999997      21.334999999999997
   280   1      8.7850000000000001      20.080000000000002      21.334999999999997
   281   1      8.7850000000000001      21.334999999999997      20.080000000000002
   282   1      7.5300000000000011      20.080000000000002                   22.59
   283   1      7.5300000000000011      21.334999999999997      23.845000000000002
   284   1      8.7850000000000001      20.080000000000002      23.845000000000002
   285   1      8.7850000000000001      21.334999999999997                   22.59
   286   1      7.5300000000000011      20.080000000000002      25.100000000000001
   287   1      8.7850000000000001      20.080000000000002                  26.355
   288   1      8.7850000000000001      21.334999999999997      25.100000000000001
   289   1      8.7850000000000001                   22.59      11.295000000000002
   290   1      7.5300000000000011                   22.59      12.550000000000001
   291   1      7.5300000000000011      23.845000000000002      13.805000000000001
   292   1      8.7850000000000001                   22.59      13.805000000000001
   293   1      8.7850000000000001      23.845000000000002      12.550000000000001
   294   1      7.5300000000000011                   22.59      15.060000000000002
   295   1      7.5300000000000011      23.845000000000002      16.315000000000001
   296   1      8.7850000000000001                   22.59      16.315000000000001
   297   1      8.7850000000000001      23.845000000000002      15.060000000000002
   298   1      7.5300000000000011                   22.59                   17.57
   299   1      7.5300000000000011      23.845000000000002      18.824999999999999
   300   1      8.7850000000000001                   22.59      18.824999999999999
   301   1      8.7850000000000001      23.845000000000002                   17.57
   302   1      7.5300000000000011                   22.59      20.080000000000002
   303   1      7.5300000000000011      23.845000000000002      21.334999999999997
   304   1      8.7850000000000001                   22.59      21.334999999999997
   305   1      8.7850000000000001      23.845000000000002      20.080000000000002
   306   1      7.5300000000000011                   22.59                   22.59
   307   1      8.7850000000000001                   22.59      23.845000000000002
   308   1      8.7850000000000001      23.845000000000002                   22.59
   309   1      8.7850000000000001      25.100000000000001      13.805000000000001
   310   1      7.5300000000000011      25.100000000000001      15.060000000000002
   311   1      7.5300000000000011                  26.355      16.315000000000001
   312   1      8.7850000000000001      25.100000000000001      16.315000000000001
   313   1      8.7850000000000001                  26.355      15.060000000000002
   314   1      7.5300000000000011      25.100000000000001                   17.57
   315   1      7.5300000000000011                  26.355      18.824999999999999
   316   1      8.7850000000000001      25.100000000000001      18.824999999999999
   317   1      8.7850000000000001                  26.355                   17.57
   318   1      7.5300000000000011      25.100000000000001      20.080000000000002
   319   1      8.7850000000000001      25.100000000000001      21.334999999999997
   320   1      8.7850000000000001                  26.355      20.080000000000002
   321   1      8.7850000000000001      27.610000000000003      16.315000000000001
   322   1      7.5300000000000011      27.610000000000003                   17.57
   323   1      8.7850000000000001      27.610000000000003      18.824999999999999
   324   1      8.7850000000000001      28.864999999999998                   17.57
   325   1      10.040000000000003       6.275000000000003      16.315000000000001
   326   1      11.295000000000002      5.0200000000000022      16.315000000000001
   327   1      11.295000000000002       6.275000000000003      15.060000000000002
   328   1      10.040000000000003      5.0200000000000022                   17.57
   329   1      10.040000000000003       6.275000000000003      18.824999999999999
   330   1      11.295000000000002      5.0200000000000022      18.824999999999999
   331   1      11.295000000000002       6.275000000000003                   17.57
   332   1      11.295000000000002       6.275000000000003      20.080000000000002
   333   1      10.040000000000003      8.7850000000000001      13.805000000000001
   334   1      11.295000000000002      7.5300000000000011      13.805000000000001
   335   1      11.295000000000002      8.7850000000000001      12.550000000000001
   336   1      10.040000000000003      7.5300000000000011      15.060000000000002
   337   1      10.040000000000003      8.7850000000000001      16.315000000000001
   338   1      11.295000000000002      7.5300000000000011      16.315000000000001
   339   1      11.295000000000002      8.7850000000000001      15.060000000000002
   340   1      10.040000000000003      7.5300000000000011                   17.57
   341   1      10.040000000000003      8.7850000000000001      18.824999999999999
   342   1      11.295000000000002      7.5300000000000011      18.824999999999999
   343   1      11.295000000000002      8.7850000000000001                   17.57
   344   1      10.040000000000003      7.5300000000000011      20.080000000000002
   345   1      10.040000000000003      8.7850000000000001      21.334999999999997
   346   1      11.295000000000002      7.5300000000000011      21.334999999999997
   347   1      11.295000000000002      8.7850000000000001      20.080000000000002
   348   1      11.295000000000002      8.7850000000000001                   22.59
   349   1      10.040000000000003      10.040000000000003      10.040000000000003
   350   1      10.040000000000003      11.295000000000002      11.295000000000002
   351   1      11.295000000000002      10.040000000000003      11.295000000000002
   352   1      11.295000000000002      11.295000000000002      10.040000000000003
   353   1      10.040000000000003      10.040000000000003      12.550000000000001
   354   1      10.040000000000003      11.295000000000002      13.805000000000001
   355   1      11.295000000000002      10.040000000000003      13.805000000000001
   356   1      11.295000000000002      11.295000000000002      12.550000000000001
   357   1      10.040000000000003      10.040000000000003      15.060000000000002
   358   1      10.040000000000003      11.295000000000002      16.315000000000001