model_files/Pd/Pd_30000/Pd_210/data.Pd_210_fcc_30389 (written by ASE) 

30389 	 atoms 
1  atom types
0.0                      99  xlo xhi
0.0                      99  ylo yhi
0.0                      99  zlo zhi


Atoms 

     1   1      98.999999999999986                   46.68                  48.625
     2   1      98.999999999999986                  48.625                   46.68
     3   1      98.999999999999986                  48.625                   50.57
     4   1      98.999999999999986                   50.57                  48.625
     5   1      3.8899999999999944      38.899999999999991      40.844999999999999
     6   1      3.8899999999999944      38.899999999999991      44.734999999999992
     7   1      3.8899999999999944      38.899999999999991                  48.625
     8   1      3.8899999999999944      38.899999999999991      52.514999999999993
     9   1      3.8899999999999944      38.899999999999991      56.405000000000001
    10   1      3.8899999999999944      40.844999999999999      38.899999999999991
    11   1      1.9449999999999932      42.789999999999992      42.789999999999992
    12   1      3.8899999999999944      40.844999999999999      42.789999999999992
    13   1      3.8899999999999944      42.789999999999992      40.844999999999999
    14   1      1.9449999999999932      42.789999999999992                   46.68
    15   1      3.8899999999999944      40.844999999999999                   46.68
    16   1      3.8899999999999944      42.789999999999992      44.734999999999992
    17   1      1.9449999999999932      42.789999999999992                   50.57
    18   1      3.8899999999999944      40.844999999999999                   50.57
    19   1      3.8899999999999944      42.789999999999992                  48.625
    20   1      1.9449999999999932      42.789999999999992      54.460000000000001
    21   1      3.8899999999999944      40.844999999999999      54.460000000000001
    22   1      3.8899999999999944      42.789999999999992      52.514999999999993
    23   1      3.8899999999999944      40.844999999999999      58.349999999999994
    24   1      3.8899999999999944      42.789999999999992      56.405000000000001
    25   1      3.8899999999999944      44.734999999999992      38.899999999999991
    26   1      1.9449999999999932                   46.68      42.789999999999992
    27   1      3.8899999999999944      44.734999999999992      42.789999999999992
    28   1      3.8899999999999944                   46.68      40.844999999999999
    29   1      1.9449999999999932      44.734999999999992      44.734999999999992
    30   1      1.9449999999999932                   46.68                   46.68
    31   1      3.8899999999999944      44.734999999999992                   46.68
    32   1      3.8899999999999944                   46.68      44.734999999999992
    33   1      1.9449999999999932      44.734999999999992                  48.625
    34   1      1.9449999999999932                   46.68                   50.57
    35   1      3.8899999999999944      44.734999999999992                   50.57
    36   1      3.8899999999999944                   46.68                  48.625
    37   1      1.9449999999999932      44.734999999999992      52.514999999999993
    38   1      1.9449999999999932                   46.68      54.460000000000001
    39   1      3.8899999999999944      44.734999999999992      54.460000000000001
    40   1      3.8899999999999944                   46.68      52.514999999999993
    41   1      3.8899999999999944      44.734999999999992      58.349999999999994
    42   1      3.8899999999999944                   46.68      56.405000000000001
    43   1      3.8899999999999944                  48.625      38.899999999999991
    44   1      1.9449999999999932                   50.57      42.789999999999992
    45   1      3.8899999999999944                  48.625      42.789999999999992
    46   1      3.8899999999999944                   50.57      40.844999999999999
    47   1      1.9449999999999932                  48.625      44.734999999999992
    48   1      1.9449999999999932                   50.57                   46.68
    49   1      3.8899999999999944                  48.625                   46.68
    50   1      3.8899999999999944                   50.57      44.734999999999992
    51   1      1.9449999999999932                  48.625                  48.625
    52   1      1.9449999999999932                   50.57                   50.57
    53   1      3.8899999999999944                  48.625                   50.57
    54   1      3.8899999999999944                   50.57                  48.625
    55   1      1.9449999999999932                  48.625      52.514999999999993
    56   1      1.9449999999999932                   50.57      54.460000000000001
    57   1      3.8899999999999944                  48.625      54.460000000000001
    58   1      3.8899999999999944                   50.57      52.514999999999993
    59   1      3.8899999999999944                  48.625      58.349999999999994
    60   1      3.8899999999999944                   50.57      56.405000000000001
    61   1      3.8899999999999944      52.514999999999993      38.899999999999991
    62   1      1.9449999999999932      54.460000000000001      42.789999999999992
    63   1      3.8899999999999944      52.514999999999993      42.789999999999992
    64   1      3.8899999999999944      54.460000000000001      40.844999999999999
    65   1      1.9449999999999932      52.514999999999993      44.734999999999992
    66   1      1.9449999999999932      54.460000000000001                   46.68
    67   1      3.8899999999999944      52.514999999999993                   46.68
    68   1      3.8899999999999944      54.460000000000001      44.734999999999992
    69   1      1.9449999999999932      52.514999999999993                  48.625
    70   1      1.9449999999999932      54.460000000000001                   50.57
    71   1      3.8899999999999944      52.514999999999993                   50.57
    72   1      3.8899999999999944      54.460000000000001                  48.625
    73   1      1.9449999999999932      52.514999999999993      52.514999999999993
    74   1      1.9449999999999932      54.460000000000001      54.460000000000001
    75   1      3.8899999999999944      52.514999999999993      54.460000000000001
    76   1      3.8899999999999944      54.460000000000001      52.514999999999993
    77   1      3.8899999999999944      52.514999999999993      58.349999999999994
    78   1      3.8899999999999944      54.460000000000001      56.405000000000001
    79   1      3.8899999999999944      56.405000000000001      38.899999999999991
    80   1      3.8899999999999944      56.405000000000001      42.789999999999992
    81   1      3.8899999999999944      58.349999999999994      40.844999999999999
    82   1      3.8899999999999944      56.405000000000001                   46.68
    83   1      3.8899999999999944      58.349999999999994      44.734999999999992
    84   1      3.8899999999999944      56.405000000000001                   50.57
    85   1      3.8899999999999944      58.349999999999994                  48.625
    86   1      3.8899999999999944      56.405000000000001      54.460000000000001
    87   1      3.8899999999999944      58.349999999999994      52.514999999999993
    88   1      3.8899999999999944      56.405000000000001      58.349999999999994
    89   1      3.8899999999999944      58.349999999999994      56.405000000000001
    90   1      7.7799999999999949       31.11999999999999      33.064999999999998
    91   1      7.7799999999999949       31.11999999999999      36.954999999999991
    92   1      7.7799999999999949       31.11999999999999      40.844999999999999
    93   1      7.7799999999999949       31.11999999999999      44.734999999999992
    94   1      7.7799999999999949       31.11999999999999                  48.625
    95   1      7.7799999999999949       31.11999999999999      52.514999999999993
    96   1      7.7799999999999949       31.11999999999999      56.405000000000001
    97   1      7.7799999999999949       31.11999999999999      60.295000000000002
    98   1      7.7799999999999949       31.11999999999999      64.185000000000002
    99   1      7.7799999999999949      33.064999999999998       31.11999999999999
   100   1      5.8349999999999946      35.009999999999998      35.009999999999998
   101   1      7.7799999999999949      33.064999999999998      35.009999999999998
   102   1      7.7799999999999949      35.009999999999998      33.064999999999998
   103   1      5.8349999999999946      35.009999999999998      38.899999999999991
   104   1      7.7799999999999949      33.064999999999998      38.899999999999991
   105   1      7.7799999999999949      35.009999999999998      36.954999999999991
   106   1      5.8349999999999946      35.009999999999998      42.789999999999992
   107   1      7.7799999999999949      33.064999999999998      42.789999999999992
   108   1      7.7799999999999949      35.009999999999998      40.844999999999999
   109   1      5.8349999999999946      35.009999999999998                   46.68
   110   1      7.7799999999999949      33.064999999999998                   46.68
   111   1      7.7799999999999949      35.009999999999998      44.734999999999992
   112   1      5.8349999999999946      35.009999999999998                   50.57
   113   1      7.7799999999999949      33.064999999999998                   50.57
   114   1      7.7799999999999949      35.009999999999998                  48.625
   115   1      5.8349999999999946      35.009999999999998      54.460000000000001
   116   1      7.7799999999999949      33.064999999999998      54.460000000000001
   117   1      7.7799999999999949      35.009999999999998      52.514999999999993
   118   1      5.8349999999999946      35.009999999999998      58.349999999999994
   119   1      7.7799999999999949      33.064999999999998      58.349999999999994
   120   1      7.7799999999999949      35.009999999999998      56.405000000000001
   121   1      5.8349999999999946      35.009999999999998      62.240000000000002
   122   1      7.7799999999999949      33.064999999999998      62.240000000000002
   123   1      7.7799999999999949      35.009999999999998      60.295000000000002
   124   1      7.7799999999999949      33.064999999999998      66.129999999999995
   125   1      7.7799999999999949      35.009999999999998      64.185000000000002
   126   1      7.7799999999999949      36.954999999999991       31.11999999999999
   127   1      5.8349999999999946      38.899999999999991      35.009999999999998
   128   1      7.7799999999999949      36.954999999999991      35.009999999999998
   129   1      7.7799999999999949      38.899999999999991      33.064999999999998
   130   1      5.8349999999999946      36.954999999999991      36.954999999999991
   131   1      5.8349999999999946      38.899999999999991      38.899999999999991
   132   1      7.7799999999999949      36.954999999999991      38.899999999999991
   133   1      7.7799999999999949      38.899999999999991      36.954999999999991
   134   1      5.8349999999999946      36.954999999999991      40.844999999999999
   135   1      5.8349999999999946      38.899999999999991      42.789999999999992
   136   1      7.7799999999999949      36.954999999999991      42.789999999999992
   137   1      7.7799999999999949      38.899999999999991      40.844999999999999
   138   1      5.8349999999999946      36.954999999999991      44.734999999999992
   139   1      5.8349999999999946      38.899999999999991                   46.68
   140   1      7.7799999999999949      36.954999999999991                   46.68
   141   1      7.7799999999999949      38.899999999999991      44.734999999999992
   142   1      5.8349999999999946      36.954999999999991                  48.625
   143   1      5.8349999999999946      38.899999999999991                   50.57
   144   1      7.7799999999999949      36.954999999999991                   50.57
   145   1      7.7799999999999949      38.899999999999991                  48.625
   146   1      5.8349999999999946      36.954999999999991      52.514999999999993
   147   1      5.8349999999999946      38.899999999999991      54.460000000000001
   148   1      7.7799999999999949      36.954999999999991      54.460000000000001
   149   1      7.7799999999999949      38.899999999999991      52.514999999999993
   150   1      5.8349999999999946      36.954999999999991      56.405000000000001
   151   1      5.8349999999999946      38.899999999999991      58.349999999999994
   152   1      7.7799999999999949      36.954999999999991      58.349999999999994
   153   1      7.7799999999999949      38.899999999999991      56.405000000000001
   154   1      5.8349999999999946      36.954999999999991      60.295000000000002
   155   1      5.8349999999999946      38.899999999999991      62.240000000000002
   156   1      7.7799999999999949      36.954999999999991      62.240000000000002
   157   1      7.7799999999999949      38.899999999999991      60.295000000000002
   158   1      7.7799999999999949      36.954999999999991      66.129999999999995
   159   1      7.7799999999999949      38.899999999999991      64.185000000000002
   160   1      7.7799999999999949      40.844999999999999       31.11999999999999
   161   1      5.8349999999999946      42.789999999999992      35.009999999999998
   162   1      7.7799999999999949      40.844999999999999      35.009999999999998
   163   1      7.7799999999999949      42.789999999999992      33.064999999999998
   164   1      5.8349999999999946      40.844999999999999      36.954999999999991
   165   1      5.8349999999999946      42.789999999999992      38.899999999999991
   166   1      7.7799999999999949      40.844999999999999      38.899999999999991
   167   1      7.7799999999999949      42.789999999999992      36.954999999999991
   168   1      5.8349999999999946      40.844999999999999      40.844999999999999
   169   1      5.8349999999999946      42.789999999999992      42.789999999999992
   170   1      7.7799999999999949      40.844999999999999      42.789999999999992
   171   1      7.7799999999999949      42.789999999999992      40.844999999999999
   172   1      5.8349999999999946      40.844999999999999      44.734999999999992
   173   1      5.8349999999999946      42.789999999999992                   46.68
   174   1      7.7799999999999949      40.844999999999999                   46.68
   175   1      7.7799999999999949      42.789999999999992      44.734999999999992
   176   1      5.8349999999999946      40.844999999999999                  48.625
   177   1      5.8349999999999946      42.789999999999992                   50.57
   178   1      7.7799999999999949      40.844999999999999                   50.57
   179   1      7.7799999999999949      42.789999999999992                  48.625
   180   1      5.8349999999999946      40.844999999999999      52.514999999999993
   181   1      5.8349999999999946      42.789999999999992      54.460000000000001
   182   1      7.7799999999999949      40.844999999999999      54.460000000000001
   183   1      7.7799999999999949      42.789999999999992      52.514999999999993
   184   1      5.8349999999999946      40.844999999999999      56.405000000000001
   185   1      5.8349999999999946      42.789999999999992      58.349999999999994
   186   1      7.7799999999999949      40.844999999999999      58.349999999999994
   187   1      7.7799999999999949      42.789999999999992      56.405000000000001
   188   1      5.8349999999999946      40.844999999999999      60.295000000000002
   189   1      5.8349999999999946      42.789999999999992      62.240000000000002
   190   1      7.7799999999999949      40.844999999999999      62.240000000000002
   191   1      7.7799999999999949      42.789999999999992      60.295000000000002
   192   1      7.7799999999999949      40.844999999999999      66.129999999999995
   193   1      7.7799999999999949      42.789999999999992      64.185000000000002
   194   1      7.7799999999999949      44.734999999999992       31.11999999999999
   195   1      5.8349999999999946                   46.68      35.009999999999998
   196   1      7.7799999999999949      44.734999999999992      35.009999999999998
   197   1      7.7799999999999949                   46.68      33.064999999999998
   198   1      5.8349999999999946      44.734999999999992      36.954999999999991
   199   1      5.8349999999999946                   46.68      38.899999999999991
   200   1      7.7799999999999949      44.734999999999992      38.899999999999991
   201   1      7.7799999999999949                   46.68      36.954999999999991
   202   1      5.8349999999999946      44.734999999999992      40.844999999999999
   203   1      5.8349999999999946                   46.68      42.789999999999992
   204   1      7.7799999999999949      44.734999999999992      42.789999999999992
   205   1      7.7799999999999949                   46.68      40.844999999999999
   206   1      5.8349999999999946      44.734999999999992      44.734999999999992
   207   1      5.8349999999999946                   46.68                   46.68
   208   1      7.7799999999999949      44.734999999999992                   46.68
   209   1      7.7799999999999949                   46.68      44.734999999999992
   210   1      5.8349999999999946      44.734999999999992                  48.625
   211   1      5.8349999999999946                   46.68                   50.57
   212   1      7.7799999999999949      44.734999999999992                   50.57
   213   1      7.7799999999999949                   46.68                  48.625
   214   1      5.8349999999999946      44.734999999999992      52.514999999999993
   215   1      5.8349999999999946                   46.68      54.460000000000001
   216   1      7.7799999999999949      44.734999999999992      54.460000000000001
   217   1      7.7799999999999949                   46.68      52.514999999999993
   218   1      5.8349999999999946      44.734999999999992      56.405000000000001
   219   1      5.8349999999999946                   46.68      58.349999999999994
   220   1      7.7799999999999949      44.734999999999992      58.349999999999994
   221   1      7.7799999999999949                   46.68      56.405000000000001
   222   1      5.8349999999999946      44.734999999999992      60.295000000000002
   223   1      5.8349999999999946                   46.68      62.240000000000002
   224   1      7.7799999999999949      44.734999999999992      62.240000000000002
   225   1      7.7799999999999949                   46.68      60.295000000000002
   226   1      7.7799999999999949      44.734999999999992      66.129999999999995
   227   1      7.7799999999999949                   46.68      64.185000000000002
   228   1      7.7799999999999949                  48.625       31.11999999999999
   229   1      5.8349999999999946                   50.57      35.009999999999998
   230   1      7.7799999999999949                  48.625      35.009999999999998
   231   1      7.7799999999999949                   50.57      33.064999999999998
   232   1      5.8349999999999946                  48.625      36.954999999999991
   233   1      5.8349999999999946                   50.57      38.899999999999991
   234   1      7.7799999999999949                  48.625      38.899999999999991
   235   1      7.7799999999999949                   50.57      36.954999999999991
   236   1      5.8349999999999946                  48.625      40.844999999999999
   237   1      5.8349999999999946                   50.57      42.789999999999992
   238   1      7.7799999999999949                  48.625      42.789999999999992
   239   1      7.7799999999999949                   50.57      40.844999999999999
   240   1      5.8349999999999946                  48.625      44.734999999999992
   241   1      5.8349999999999946                   50.57                   46.68
   242   1      7.7799999999999949                  48.625                   46.68
   243   1      7.7799999999999949                   50.57      44.734999999999992
   244   1      5.8349999999999946                  48.625                  48.625
   245   1      5.8349999999999946                   50.57                   50.57
   246   1      7.7799999999999949                  48.625                   50.57
   247   1      7.7799999999999949                   50.57                  48.625
   248   1      5.8349999999999946                  48.625      52.514999999999993
   249   1      5.8349999999999946                   50.57      54.460000000000001
   250   1      7.7799999999999949                  48.625      54.460000000000001
   251   1      7.7799999999999949                   50.57      52.514999999999993
   252   1      5.8349999999999946                  48.625      56.405000000000001
   253   1      5.8349999999999946                   50.57      58.349999999999994
   254   1      7.7799999999999949                  48.625      58.349999999999994
   255   1      7.7799999999999949                   50.57      56.405000000000001
   256   1      5.8349999999999946                  48.625      60.295000000000002
   257   1      5.8349999999999946                   50.57      62.240000000000002
   258   1      7.7799999999999949                  48.625      62.240000000000002
   259   1      7.7799999999999949                   50.57      60.295000000000002
   260   1      7.7799999999999949                  48.625      66.129999999999995
   261   1      7.7799999999999949                   50.57      64.185000000000002
   262   1      7.7799999999999949      52.514999999999993       31.11999999999999
   263   1      5.8349999999999946      54.460000000000001      35.009999999999998
   264   1      7.7799999999999949      52.514999999999993      35.009999999999998
   265   1      7.7799999999999949      54.460000000000001      33.064999999999998
   266   1      5.8349999999999946      52.514999999999993      36.954999999999991
   267   1      5.8349999999999946      54.460000000000001      38.899999999999991
   268   1      7.7799999999999949      52.514999999999993      38.899999999999991
   269   1      7.7799999999999949      54.460000000000001      36.954999999999991
   270   1      5.8349999999999946      52.514999999999993      40.844999999999999
   271   1      5.8349999999999946      54.460000000000001      42.789999999999992
   272   1      7.7799999999999949      52.514999999999993      42.789999999999992
   273   1      7.7799999999999949      54.460000000000001      40.844999999999999
   274   1      5.8349999999999946      52.514999999999993      44.734999999999992
   275   1      5.8349999999999946      54.460000000000001                   46.68
   276   1      7.7799999999999949      52.514999999999993                   46.68
   277   1      7.7799999999999949      54.460000000000001      44.734999999999992
   278   1      5.8349999999999946      52.514999999999993                  48.625
   279   1      5.8349999999999946      54.460000000000001                   50.57
   280   1      7.7799999999999949      52.514999999999993                   50.57
   281   1      7.7799999999999949      54.460000000000001                  48.625
   282   1      5.8349999999999946      52.514999999999993      52.514999999999993
   283   1      5.8349999999999946      54.460000000000001      54.460000000000001
   284   1      7.7799999999999949      52.514999999999993      54.460000000000001
   285   1      7.7799999999999949      54.460000000000001      52.514999999999993
   286   1      5.8349999999999946      52.514999999999993      56.405000000000001
   287   1      5.8349999999999946      54.460000000000001      58.349999999999994
   288   1      7.7799999999999949      52.514999999999993      58.349999999999994
   289   1      7.7799999999999949      54.460000000000001      56.405000000000001
   290   1      5.8349999999999946      52.514999999999993      60.295000000000002
   291   1      5.8349999999999946      54.460000000000001      62.240000000000002
   292   1      7.7799999999999949      52.514999999999993      62.240000000000002
   293   1      7.7799999999999949      54.460000000000001      60.295000000000002
   294   1      7.7799999999999949      52.514999999999993      66.129999999999995
   295   1      7.7799999999999949      54.460000000000001      64.185000000000002
   296   1      7.7799999999999949      56.405000000000001       31.11999999999999
   297   1      5.8349999999999946      58.349999999999994      35.009999999999998
   298   1      7.7799999999999949      56.405000000000001      35.009999999999998
   299   1      7.7799999999999949      58.349999999999994      33.064999999999998
   300   1      5.8349999999999946      56.405000000000001      36.954999999999991
   301   1      5.8349999999999946      58.349999999999994      38.899999999999991
   302   1      7.7799999999999949      56.405000000000001      38.899999999999991
   303   1      7.7799999999999949      58.349999999999994      36.954999999999991
   304   1      5.8349999999999946      56.405000000000001      40.844999999999999
   305   1      5.8349999999999946      58.349999999999994      42.789999999999992
   306   1      7.7799999999999949      56.405000000000001      42.789999999999992
   307   1      7.7799999999999949      58.349999999999994      40.844999999999999
   308   1      5.8349999999999946      56.405000000000001      44.734999999999992
   309   1      5.8349999999999946      58.349999999999994                   46.68
   310   1      7.7799999999999949      56.405000000000001                   46.68
   311   1      7.7799999999999949      58.349999999999994      44.734999999999992
   312   1      5.8349999999999946      56.405000000000001                  48.625
   313   1      5.8349999999999946      58.349999999999994                   50.57
   314   1      7.7799999999999949      56.405000000000001                   50.57
   315   1      7.7799999999999949      58.349999999999994                  48.625
   316   1      5.8349999999999946      56.405000000000001      52.514999999999993
   317   1      5.8349999999999946      58.349999999999994      54.460000000000001
   318   1      7.7799999999999949      56.405000000000001      54.460000000000001
   319   1      7.7799999999999949      58.349999999999994      52.514999999999993
   320   1      5.8349999999999946      56.405000000000001      56.405000000000001
   321   1      5.8349999999999946      58.349999999999994      58.349999999999994
   322   1      7.7799999999999949      56.405000000000001      58.349999999999994
   323   1      7.7799999999999949      58.349999999999994      56.405000000000001
   324   1      5.8349999999999946      56.405000000000001      60.295000000000002
   325   1      5.8349999999999946      58.349999999999994      62.240000000000002
   326   1      7.7799999999999949      56.405000000000001      62.240000000000002
   327   1      7.7799999999999949      58.349999999999994      60.295000000000002
   328   1      7.7799999999999949      56.405000000000001      66.129999999999995
   329   1      7.7799999999999949      58.349999999999994      64.185000000000002
   330   1      7.7799999999999949      60.295000000000002       31.11999999999999
   331   1      5.8349999999999946      62.240000000000002      35.009999999999998
   332   1      7.7799999999999949      60.295000000000002      35.009999999999998
   333   1      7.7799999999999949      62.240000000000002      33.064999999999998
   334   1      5.8349999999999946      60.295000000000002      36.954999999999991
   335   1      5.8349999999999946      62.240000000000002      38.899999999999991
   336   1      7.7799999999999949      60.295000000000002      38.899999999999991
   337   1      7.7799999999999949      62.240000000000002      36.954999999999991
   338   1      5.8349999999999946      60.295000000000002      40.844999999999999
   339   1      5.8349999999999946      62.240000000000002      42.789999999999992
   340   1      7.7799999999999949      60.295000000000002      42.789999999999992
   341   1      7.7799999999999949      62.240000000000002      40.844999999999999
   342   1      5.8349999999999946      60.295000000000002      44.734999999999992
   343   1      5.8349999999999946      62.240000000000002                   46.68
   344   1      7.7799999999999949      60.295000000000002                   46.68
   345   1      7.7799999999999949      62.240000000000002      44.734999999999992
   346   1      5.8349999999999946      60.295000000000002                  48.625
   347   1      5.8349999999999946      62.240000000000002                   50.57
   348   1      7.7799999999999949      60.295000000000002                   50.57
   349   1      7.7799999999999949      62.240000000000002                  48.625
   350   1      5.8349999999999946      60.295000000000002      52.514999999999993
   351   1      5.8349999999999946      62.240000000000002      54.460000000000001
   352   1      7.7799999999999949      60.295000000000002      54.460000000000001
   353   1      7.7799999999999949      62.240000000000002      52.514999999999993
   354   1      5.8349999999999946      60.295000000000002      56.405000000000001
   355   1      5.8349999999999946      62.240000000000002      58.349999999999994
   356   1      7.7799999999999949      60.295000000000002      58.349999999999994
   357   1      7.7799999999999949      62.240000000000002      56.405000000000001
   358   1      5.8349999999999946      60.295000000000002      60.295000000000002