LAMMPS data file via write_data, version 30 Nov 2020, timestep = 0

30453 atoms
5 atom types

0 91 xlo xhi
0 91 ylo yhi
0 91 zlo zhi

Masses

1 58.7
2 55.8
3 52
4 59
5 63

Atoms # atomic

1 1 0 42.84 44.625 0 0 0
2 3 0 44.625 42.84 0 0 0
5 5 3.5700000000000003 32.129999999999995 44.625 0 0 0
6 2 3.5700000000000003 33.915 42.84 0 0 0
7 2 3.5700000000000003 35.7 41.055 0 0 0
9 1 3.5700000000000003 35.7 44.625 0 0 0
11 5 3.5700000000000003 37.485 39.27 0 0 0
12 1 3.5700000000000003 39.27 37.485 0 0 0
13 1 1.7850000000000037 39.27 42.84 0 0 0
14 4 3.5700000000000003 37.485 42.84 0 0 0
15 1 3.5700000000000003 39.27 41.055 0 0 0
16 4 1.7850000000000037 37.485 44.625 0 0 0
19 2 3.5700000000000003 39.27 44.625 0 0 0
23 5 3.5700000000000003 41.055 35.7 0 0 0
24 2 3.5700000000000003 42.84 33.915 0 0 0
25 3 1.7850000000000037 42.84 39.27 0 0 0
26 4 3.5700000000000003 41.055 39.27 0 0 0
27 5 3.5700000000000003 42.84 37.485 0 0 0
28 3 1.7850000000000037 41.055 41.055 0 0 0
29 1 1.7850000000000037 42.84 42.84 0 0 0
30 2 3.5700000000000003 41.055 42.84 0 0 0
31 4 3.5700000000000003 42.84 41.055 0 0 0
32 5 1.7850000000000037 41.055 44.625 0 0 0
35 2 3.5700000000000003 42.84 44.625 0 0 0
43 2 3.5700000000000003 44.625 32.129999999999995 0 0 0
44 3 3.5700000000000003 44.625 35.7 0 0 0
46 5 1.7850000000000037 44.625 37.485 0 0 0
48 3 3.5700000000000003 44.625 39.27 0 0 0
50 4 1.7850000000000037 44.625 41.055 0 0 0
52 4 3.5700000000000003 44.625 42.84 0 0 0
54 2 1.7850000000000037 44.625 44.625 0 0 0
94 5 7.140000000000001 21.42 44.625 0 0 0
95 1 7.140000000000001 23.205000000000005 42.84 0 0 0
96 2 7.140000000000001 24.990000000000002 41.055 0 0 0
98 4 7.140000000000001 24.990000000000002 44.625 0 0 0
100 1 7.140000000000001 26.775000000000006 39.27 0 0 0
101 1 7.140000000000001 28.560000000000002 37.485 0 0 0
102 2 5.355000000000005 28.560000000000002 42.84 0 0 0
103 1 7.140000000000001 26.775000000000006 42.84 0 0 0
104 4 7.140000000000001 28.560000000000002 41.055 0 0 0
105 5 5.355000000000005 26.775000000000006 44.625 0 0 0
108 5 7.140000000000001 28.560000000000002 44.625 0 0 0
112 2 7.140000000000001 30.345000000000002 35.7 0 0 0
113 3 7.140000000000001 32.129999999999995 33.915 0 0 0
114 4 5.355000000000005 32.129999999999995 39.27 0 0 0
115 3 7.140000000000001 30.345000000000002 39.27 0 0 0
116 3 7.140000000000001 32.129999999999995 37.485 0 0 0
117 5 5.355000000000005 30.345000000000002 41.055 0 0 0
118 5 5.355000000000005 32.129999999999995 42.84 0 0 0
119 3 7.140000000000001 30.345000000000002 42.84 0 0 0
120 5 7.140000000000001 32.129999999999995 41.055 0 0 0
121 5 5.355000000000005 30.345000000000002 44.625 0 0 0
124 2 7.140000000000001 32.129999999999995 44.625 0 0 0
132 2 7.140000000000001 33.915 32.129999999999995 0 0 0
133 5 7.140000000000001 35.7 30.345000000000002 0 0 0
134 2 5.355000000000005 35.7 35.7 0 0 0
135 1 7.140000000000001 33.915 35.7 0 0 0
136 2 7.140000000000001 35.7 33.915 0 0 0
137 5 5.355000000000005 33.915 37.485 0 0 0
138 2 5.355000000000005 35.7 39.27 0 0 0
139 1 7.140000000000001 33.915 39.27 0 0 0
140 5 7.140000000000001 35.7 37.485 0 0 0
141 1 5.355000000000005 33.915 41.055 0 0 0
142 5 5.355000000000005 35.7 42.84 0 0 0
143 3 7.140000000000001 33.915 42.84 0 0 0
144 1 7.140000000000001 35.7 41.055 0 0 0
145 3 5.355000000000005 33.915 44.625 0 0 0
148 4 7.140000000000001 35.7 44.625 0 0 0
160 1 7.140000000000001 37.485 28.560000000000002 0 0 0
161 4 7.140000000000001 39.27 26.775000000000006 0 0 0
162 3 5.355000000000005 39.27 32.129999999999995 0 0 0
163 2 7.140000000000001 37.485 32.129999999999995 0 0 0
164 5 7.140000000000001 39.27 30.345000000000002 0 0 0
165 3 5.355000000000005 37.485 33.915 0 0 0
166 4 5.355000000000005 39.27 35.7 0 0 0
167 5 7.140000000000001 37.485 35.7 0 0 0
168 2 7.140000000000001 39.27 33.915 0 0 0
169 4 5.355000000000005 37.485 37.485 0 0 0
170 4 5.355000000000005 39.27 39.27 0 0 0
171 3 7.140000000000001 37.485 39.27 0 0 0
172 4 7.140000000000001 39.27 37.485 0 0 0
173 4 5.355000000000005 37.485 41.055 0 0 0
174 2 5.355000000000005 39.27 42.84 0 0 0
175 5 7.140000000000001 37.485 42.84 0 0 0
176 2 7.140000000000001 39.27 41.055 0 0 0
177 1 5.355000000000005 37.485 44.625 0 0 0
180 4 7.140000000000001 39.27 44.625 0 0 0
196 4 7.140000000000001 41.055 24.990000000000002 0 0 0
197 4 7.140000000000001 42.84 23.205000000000005 0 0 0
198 1 5.355000000000005 42.84 28.560000000000002 0 0 0
199 5 7.140000000000001 41.055 28.560000000000002 0 0 0
200 1 7.140000000000001 42.84 26.775000000000006 0 0 0
201 1 5.355000000000005 41.055 30.345000000000002 0 0 0
202 2 5.355000000000005 42.84 32.129999999999995 0 0 0
203 2 7.140000000000001 41.055 32.129999999999995 0 0 0
204 5 7.140000000000001 42.84 30.345000000000002 0 0 0
205 3 5.355000000000005 41.055 33.915 0 0 0
206 3 5.355000000000005 42.84 35.7 0 0 0
207 4 7.140000000000001 41.055 35.7 0 0 0
208 1 7.140000000000001 42.84 33.915 0 0 0
209 1 5.355000000000005 41.055 37.485 0 0 0
210 1 5.355000000000005 42.84 39.27 0 0 0
211 5 7.140000000000001 41.055 39.27 0 0 0
212 3 7.140000000000001 42.84 37.485 0 0 0
213 2 5.355000000000005 41.055 41.055 0 0 0
214 2 5.355000000000005 42.84 42.84 0 0 0
215 4 7.140000000000001 41.055 42.84 0 0 0
216 3 7.140000000000001 42.84 41.055 0 0 0
217 2 5.355000000000005 41.055 44.625 0 0 0
220 1 7.140000000000001 42.84 44.625 0 0 0
240 1 7.140000000000001 44.625 21.42 0 0 0
241 4 7.140000000000001 44.625 24.990000000000002 0 0 0
243 3 5.355000000000005 44.625 26.775000000000006 0 0 0
245 2 7.140000000000001 44.625 28.560000000000002 0 0 0
247 2 5.355000000000005 44.625 30.345000000000002 0 0 0
249 1 7.140000000000001 44.625 32.129999999999995 0 0 0
251 1 5.355000000000005 44.625 33.915 0 0 0
253 3 7.140000000000001 44.625 35.7 0 0 0
255 2 5.355000000000005 44.625 37.485 0 0 0
257 4 7.140000000000001 44.625 39.27 0 0 0
259 2 5.355000000000005 44.625 41.055 0 0 0
261 3 7.140000000000001 44.625 42.84 0 0 0
263 4 5.355000000000005 44.625 44.625 0 0 0
411 4 10.71 10.71 44.625 0 0 0
412 4 10.71 12.495000000000006 42.84 0 0 0
413 3 10.71 14.280000000000001 41.055 0 0 0
415 5 10.71 14.280000000000001 44.625 0 0 0
417 1 10.71 16.065 39.27 0 0 0
418 2 10.71 17.85 37.485 0 0 0
419 2 8.925000000000004 17.85 42.84 0 0 0
420 1 10.71 16.065 42.84 0 0 0
421 3 10.71 17.85 41.055 0 0 0
422 2 8.925000000000004 16.065 44.625 0 0 0
425 3 10.71 17.85 44.625 0 0 0
429 2 10.71 19.635 35.7 0 0 0
430 5 10.71 21.42 33.915 0 0 0
431 1 8.925000000000004 21.42 39.27 0 0 0
432 1 10.71 19.635 39.27 0 0 0
433 3 10.71 21.42 37.485 0 0 0
434 5 8.925000000000004 19.635 41.055 0 0 0
435 4 8.925000000000004 21.42 42.84 0 0 0
436 3 10.71 19.635 42.84 0 0 0
437 3 10.71 21.42 41.055 0 0 0
438 5 8.925000000000004 19.635 44.625 0 0 0
441 5 10.71 21.42 44.625 0 0 0
449 2 10.71 23.205000000000005 32.129999999999995 0 0 0
450 4 10.71 24.990000000000002 30.345000000000002 0 0 0
451 5 8.925000000000004 24.990000000000002 35.7 0 0 0
452 2 10.71 23.205000000000005 35.7 0 0 0
453 2 10.71 24.990000000000002 33.915 0 0 0
454 4 8.925000000000004 23.205000000000005 37.485 0 0 0
455 3 8.925000000000004 24.990000000000002 39.27 0 0 0
456 1 10.71 23.205000000000005 39.27 0 0 0
457 1 10.71 24.990000000000002 37.485 0 0 0
458 5 8.925000000000004 23.205000000000005 41.055 0 0 0
459 5 8.925000000000004 24.990000000000002 42.84 0 0 0
460 4 10.71 23.205000000000005 42.84 0 0 0
461 1 10.71 24.990000000000002 41.055 0 0 0
462 1 8.925000000000004 23.205000000000005 44.625 0 0 0
465 4 10.71 24.990000000000002 44.625 0 0 0
477 2 10.71 26.775000000000006 28.560000000000002 0 0 0
478 5 10.71 28.560000000000002 26.775000000000006 0 0 0
479 4 8.925000000000004 28.560000000000002 32.129999999999995 0 0 0
480 3 10.71 26.775000000000006 32.129999999999995 0 0 0
481 2 10.71 28.560000000000002 30.345000000000002 0 0 0
482 5 8.925000000000004 26.775000000000006 33.915 0 0 0
483 4 8.925000000000004 28.560000000000002 35.7 0 0 0
484 1 10.71 26.775000000000006 35.7 0 0 0
485 3 10.71 28.560000000000002 33.915 0 0 0
486 4 8.925000000000004 26.775000000000006 37.485 0 0 0
487 3 8.925000000000004 28.560000000000002 39.27 0 0 0
488 5 10.71 26.775000000000006 39.27 0 0 0
489 2 10.71 28.560000000000002 37.485 0 0 0
490 1 8.925000000000004 26.775000000000006 41.055 0 0 0
491 1 8.925000000000004 28.560000000000002 42.84 0 0 0
492 2 10.71 26.775000000000006 42.84 0 0 0
493 4 10.71 28.560000000000002 41.055 0 0 0
494 4 8.925000000000004 26.775000000000006 44.625 0 0 0
497 1 10.71 28.560000000000002 44.625 0 0 0
513 2 10.71 30.345000000000002 24.990000000000002 0 0 0
514 2 10.71 32.129999999999995 23.205000000000005 0 0 0
515 4 8.925000000000004 32.129999999999995 28.560000000000002 0 0 0
516 3 10.71 30.345000000000002 28.560000000000002 0 0 0
517 4 10.71 32.129999999999995 26.775000000000006 0 0 0
518 1 8.925000000000004 30.345000000000002 30.345000000000002 0 0 0
519 2 8.925000000000004 32.129999999999995 32.129999999999995 0 0 0
520 5 10.71 30.345000000000002 32.129999999999995 0 0 0
521 3 10.71 32.129999999999995 30.345000000000002 0 0 0
522 5 8.925000000000004 30.345000000000002 33.915 0 0 0
523 3 8.925000000000004 32.129999999999995 35.7 0 0 0
524 2 10.71 30.345000000000002 35.7 0 0 0
525 2 10.71 32.129999999999995 33.915 0 0 0
526 2 8.925000000000004 30.345000000000002 37.485 0 0 0
527 5 8.925000000000004 32.129999999999995 39.27 0 0 0
528 4 10.71 30.345000000000002 39.27 0 0 0
529 1 10.71 32.129999999999995 37.485 0 0 0
530 5 8.925000000000004 30.345000000000002 41.055 0 0 0
531 1 8.925000000000004 32.129999999999995 42.84 0 0 0
532 1 10.71 30.345000000000002 42.84 0 0 0
533 3 10.71 32.129999999999995 41.055 0 0 0
534 4 8.925000000000004 30.345000000000002 44.625 0 0 0
537 4 10.71 32.129999999999995 44.625 0 0 0
557 5 10.71 33.915 21.42 0 0 0
558 1 10.71 35.7 19.635 0 0 0
559 4 8.925000000000004 35.7 24.990000000000002 0 0 0
560 3 10.71 33.915 24.990000000000002 0 0 0
561 5 10.71 35.7 23.205000000000005 0 0 0
562 5 8.925000000000004 33.915 26.775000000000006 0 0 0
563 3 8.925000000000004 35.7 28.560000000000002 0 0 0
564 2 10.71 33.915 28.560000000000002 0 0 0
565 1 10.71 35.7 26.775000000000006 0 0 0
566 2 8.925000000000004 33.915 30.345000000000002 0 0 0
567 2 8.925000000000004 35.7 32.129999999999995 0 0 0
568 1 10.71 33.915 32.129999999999995 0 0 0
569 5 10.71 35.7 30.345000000000002 0 0 0
570 4 8.925000000000004 33.915 33.915 0 0 0
571 3 8.925000000000004 35.7 35.7 0 0 0
572 5 10.71 33.915 35.7 0 0 0
573 4 10.71 35.7 33.915 0 0 0
574 1 8.925000000000004 33.915 37.485 0 0 0
575 1 8.925000000000004 35.7 39.27 0 0 0
576 5 10.71 33.915 39.27 0 0 0
577 4 10.71 35.7 37.485 0 0 0
578 3 8.925000000000004 33.915 41.055 0 0 0
579 4 8.925000000000004 35.7 42.84 0 0 0
580 4 10.71 33.915 42.84 0 0 0
581 5 10.71 35.7 41.055 0 0 0
582 4 8.925000000000004 33.915 44.625 0 0 0
585 5 10.71 35.7 44.625 0 0 0
609 3 10.71 37.485 17.85 0 0 0
610 1 10.71 39.27 16.065 0 0 0
611 5 8.925000000000004 39.27 21.42 0 0 0
612 1 10.71 37.485 21.42 0 0 0
613 4 10.71 39.27 19.635 0 0 0
614 1 8.925000000000004 37.485 23.205000000000005 0 0 0
615 4 8.925000000000004 39.27 24.990000000000002 0 0 0
616 1 10.71 37.485 24.990000000000002 0 0 0
617 2 10.71 39.27 23.205000000000005 0 0 0
618 3 8.925000000000004 37.485 26.775000000000006 0 0 0
619 1 8.925000000000004 39.27 28.560000000000002 0 0 0
620 5 10.71 37.485 28.560000000000002 0 0 0
621 5 10.71 39.27 26.775000000000006 0 0 0
622 5 8.925000000000004 37.485 30.345000000000002 0 0 0
623 2 8.925000000000004 39.27 32.129999999999995 0 0 0
624 1 10.71 37.485 32.129999999999995 0 0 0
625 1 10.71 39.27 30.345000000000002 0 0 0
626 1 8.925000000000004 37.485 33.915 0 0 0
627 5 8.925000000000004 39.27 35.7 0 0 0
628 1 10.71 37.485 35.7 0 0 0
629 5 10.71 39.27 33.915 0 0 0
630 5 8.925000000000004 37.485 37.485 0 0 0
631 2 8.925000000000004 39.27 39.27 0 0 0
632 4 10.71 37.485 39.27 0 0 0
633 2 10.71 39.27 37.485 0 0 0
634 3 8.925000000000004 37.485 41.055 0 0 0
635 1 8.925000000000004 39.27 42.84 0 0 0
636 3 10.71 37.485 42.84 0 0 0
637 1 10.71 39.27 41.055 0 0 0
638 5 8.925000000000004 37.485 44.625 0 0 0
641 4 10.71 39.27 44.625 0 0 0
669 5 10.71 41.055 14.280000000000001 0 0 0
670 4 10.71 42.84 12.495000000000006 0 0 0
671 1 8.925000000000004 42.84 17.85 0 0 0
672 5 10.71 41.055 17.85 0 0 0
673 2 10.71 42.84 16.065 0 0 0
674 5 8.925000000000004 41.055 19.635 0 0 0
675 4 8.925000000000004 42.84 21.42 0 0 0
676 3 10.71 41.055 21.42 0 0 0
677 1 10.71 42.84 19.635 0 0 0
678 5 8.925000000000004 41.055 23.205000000000005 0 0 0
679 2 8.925000000000004 42.84 24.990000000000002 0 0 0
680 2 10.71 41.055 24.990000000000002 0 0 0
681 3 10.71 42.84 23.205000000000005 0 0 0
682 1 8.925000000000004 41.055 26.775000000000006 0 0 0
683 5 8.925000000000004 42.84 28.560000000000002 0 0 0
684 3 10.71 41.055 28.560000000000002 0 0 0
685 4 10.71 42.84 26.775000000000006 0 0 0
686 2 8.925000000000004 41.055 30.345000000000002 0 0 0
687 4 8.925000000000004 42.84 32.129999999999995 0 0 0
688 1 10.71 41.055 32.129999999999995 0 0 0
689 1 10.71 42.84 30.345000000000002 0 0 0
690 5 8.925000000000004 41.055 33.915 0 0 0
691 4 8.925000000000004 42.84 35.7 0 0 0
692 5 10.71 41.055 35.7 0 0 0
693 1 10.71 42.84 33.915 0 0 0
694 4 8.925000000000004 41.055 37.485 0 0 0
695 2 8.925000000000004 42.84 39.27 0 0 0
696 4 10.71 41.055 39.27 0 0 0
697 1 10.71 42.84 37.485 0 0 0
698 5 8.925000000000004 41.055 41.055 0 0 0
699 2 8.925000000000004 42.84 42.84 0 0 0
700 1 10.71 41.055 42.84 0 0 0
701 2 10.71 42.84 41.055 0 0 0
702 3 8.925000000000004 41.055 44.625 0 0 0
705 2 10.71 42.84 44.625 0 0 0
737 3 10.71 44.625 10.71 0 0 0
738 3 10.71 44.625 14.280000000000001 0 0 0
740 5 8.925000000000004 44.625 16.065 0 0 0
742 3 10.71 44.625 17.85 0 0 0
744 2 8.925000000000004 44.625 19.635 0 0 0
746 4 10.71 44.625 21.42 0 0 0
748 5 8.925000000000004 44.625 23.205000000000005 0 0 0
750 2 10.71 44.625 24.990000000000002 0 0 0
752 3 8.925000000000004 44.625 26.775000000000006 0 0 0
754 3 10.71 44.625 28.560000000000002 0 0 0
756 1 8.925000000000004 44.625 30.345000000000002 0 0 0
758 1 10.71 44.625 32.129999999999995 0 0 0
760 1 8.925000000000004 44.625 33.915 0 0 0
762 2 10.71 44.625 35.7 0 0 0
764 3 8.925000000000004 44.625 37.485 0 0 0
766 3 10.71 44.625 39.27 0 0 0
768 2 8.925000000000004 44.625 41.055 0 0 0
770 2 10.71 44.625 42.84 0 0 0
772 5 8.925000000000004 44.625 44.625 0 0 0
1100 3 12.495000000000006 10.71 42.84 0 0 0
1101 3 14.280000000000001 10.71 41.055 0 0 0
1103 5 14.280000000000001 10.71 44.625 0 0 0
1105 1 14.280000000000001 14.280000000000001 30.345000000000002 0 0 0
1106 3 12.495000000000006 14.280000000000001 35.7 0 0 0
1107 3 14.280000000000001 12.495000000000006 35.7 0 0 0
1108 2 14.280000000000001 14.280000000000001 33.915 0 0 0
1109 4 12.495000000000006 12.495000000000006 37.485 0 0 0
1110 1 12.495000000000006 14.280000000000001 39.27 0 0 0
1111 1 14.280000000000001 12.495000000000006 39.27 0 0 0
1112 3 14.280000000000001 14.280000000000001 37.485 0 0 0
1113 5 12.495000000000006 12.495000000000006 41.055 0 0 0
1114 3 12.495000000000006 14.280000000000001 42.84 0 0 0
1115 5 14.280000000000001 12.495000000000006 42.84 0 0 0
1116 5 14.280000000000001 14.280000000000001 41.055 0 0 0
1117 5 12.495000000000006 12.495000000000006 44.625 0 0 0
1120 2 14.280000000000001 14.280000000000001 44.625 0 0 0
1131 5 14.280000000000001 16.065 28.560000000000002 0 0 0
1132 5 14.280000000000001 17.85 26.775000000000006 0 0 0
1133 4 12.495000000000006 17.85 32.129999999999995 0 0 0
1134 4 14.280000000000001 16.065 32.129999999999995 0 0 0
1135 2 14.280000000000001 17.85 30.345000000000002 0 0 0
1136 3 12.495000000000006 16.065 33.915 0 0 0
1137 5 12.495000000000006 17.85 35.7 0 0 0
1138 5 14.280000000000001 16.065 35.7 0 0 0
1139 5 14.280000000000001 17.85 33.915 0 0 0
1140 3 12.495000000000006 16.065 37.485 0 0 0
1141 1 12.495000000000006 17.85 39.27 0 0 0
1142 1 14.280000000000001 16.065 39.27 0 0 0
1143 4 14.280000000000001 17.85 37.485 0 0 0
1144 4 12.495000000000006 16.065 41.055 0 0 0
1145 1 12.495000000000006 17.85 42.84 0 0 0
1146 2 14.280000000000001 16.065 42.84 0 0 0
1147 4 14.280000000000001 17.85 41.055 0 0 0
1148 2 12.495000000000006 16.065 44.625 0 0 0
1151 5 14.280000000000001 17.85 44.625 0 0 0
1167 2 14.280000000000001 19.635 24.990000000000002 0 0 0
1168 3 14.280000000000001 21.42 23.205000000000005 0 0 0
1169 4 12.495000000000006 21.42 28.560000000000002 0 0 0
1170 3 14.280000000000001 19.635 28.560000000000002 0 0 0
1171 2 14.280000000000001 21.42 26.775000000000006 0 0 0
1172 3 12.495000000000006 19.635 30.345000000000002 0 0 0
1173 3 12.495000000000006 21.42 32.129999999999995 0 0 0
1174 5 14.280000000000001 19.635 32.129999999999995 0 0 0
1175 1 14.280000000000001 21.42 30.345000000000002 0 0 0
1176 5 12.495000000000006 19.635 33.915 0 0 0
1177 5 12.495000000000006 21.42 35.7 0 0 0
1178 2 14.280000000000001 19.635 35.7 0 0 0
1179 3 14.280000000000001 21.42 33.915 0 0 0
1180 4 12.495000000000006 19.635 37.485 0 0 0
1181 1 12.495000000000006 21.42 39.27 0 0 0
1182 3 14.280000000000001 19.635 39.27 0 0 0
1183 3 14.280000000000001 21.42 37.485 0 0 0
1184 4 12.495000000000006 19.635 41.055 0 0 0
1185 1 12.495000000000006 21.42 42.84 0 0 0
1186 3 14.280000000000001 19.635 42.84 0 0 0
1187 3 14.280000000000001 21.42 41.055 0 0 0
1188 2 12.495000000000006 19.635 44.625 0 0 0
1191 1 14.280000000000001 21.42 44.625 0 0 0
1211 5 14.280000000000001 23.205000000000005 21.42 0 0 0
1212 4 14.280000000000001 24.990000000000002 19.635 0 0 0
1213 2 12.495000000000006 24.990000000000002 24.990000000000002 0 0 0
1214 3 14.280000000000001 23.205000000000005 24.990000000000002 0 0 0
1215 3 14.280000000000001 24.990000000000002 23.205000000000005 0 0 0
1216 1 12.495000000000006 23.205000000000005 26.775000000000006 0 0 0
1217 4 12.495000000000006 24.990000000000002 28.560000000000002 0 0 0
1218 5 14.280000000000001 23.205000000000005 28.560000000000002 0 0 0
1219 5 14.280000000000001 24.990000000000002 26.775000000000006 0 0 0
1220 5 12.495000000000006 23.205000000000005 30.345000000000002 0 0 0
1221 2 12.495000000000006 24.990000000000002 32.129999999999995 0 0 0
1222 4 14.280000000000001 23.205000000000005 32.129999999999995 0 0 0
1223 2 14.280000000000001 24.990000000000002 30.345000000000002 0 0 0
1224 4 12.495000000000006 23.205000000000005 33.915 0 0 0
1225 3 12.495000000000006 24.990000000000002 35.7 0 0 0
1226 1 14.280000000000001 23.205000000000005 35.7 0 0 0
1227 5 14.280000000000001 24.990000000000002 33.915 0 0 0
1228 4 12.495000000000006 23.205000000000005 37.485 0 0 0
1229 3 12.495000000000006 24.990000000000002 39.27 0 0 0
1230 4 14.280000000000001 23.205000000000005 39.27 0 0 0
1231 3 14.280000000000001 24.990000000000002 37.485 0 0 0
1232 2 12.495000000000006 23.205000000000005 41.055 0 0 0
1233 1 12.495000000000006 24.990000000000002 42.84 0 0 0
1234 3 14.280000000000001 23.205000000000005 42.84 0 0 0
1235 1 14.280000000000001 24.990000000000002 41.055 0 0 0
1236 4 12.495000000000006 23.205000000000005 44.625 0 0 0
1239 3 14.280000000000001 24.990000000000002 44.625 0 0 0
1263 4 14.280000000000001 26.775000000000006 17.85 0 0 0
1264 3 14.280000000000001 28.560000000000002 16.065 0 0 0
1265 2 12.495000000000006 28.560000000000002 21.42 0 0 0
1266 1 14.280000000000001 26.775000000000006 21.42 0 0 0
1267 5 14.280000000000001 28.560000000000002 19.635 0 0 0
1268 1 12.495000000000006 26.775000000000006 23.205000000000005 0 0 0
1269 2 12.495000000000006 28.560000000000002 24.990000000000002 0 0 0
1270 4 14.280000000000001 26.775000000000006 24.990000000000002 0 0 0
1271 1 14.280000000000001 28.560000000000002 23.205000000000005 0 0 0
1272 5 12.495000000000006 26.775000000000006 26.775000000000006 0 0 0
1273 3 12.495000000000006 28.560000000000002 28.560000000000002 0 0 0
1274 3 14.280000000000001 26.775000000000006 28.560000000000002 0 0 0
1275 3 14.280000000000001 28.560000000000002 26.775000000000006 0 0 0
1276 3 12.495000000000006 26.775000000000006 30.345000000000002 0 0 0
1277 5 12.495000000000006 28.560000000000002 32.129999999999995 0 0 0
1278 4 14.280000000000001 26.775000000000006 32.129999999999995 0 0 0
1279 5 14.280000000000001 28.560000000000002 30.345000000000002 0 0 0
1280 1 12.495000000000006 26.775000000000006 33.915 0 0 0
1281 3 12.495000000000006 28.560000000000002 35.7 0 0 0
1282 4 14.280000000000001 26.775000000000006 35.7 0 0 0
1283 4 14.280000000000001 28.560000000000002 33.915 0 0 0
1284 3 12.495000000000006 26.775000000000006 37.485 0 0 0
1285 4 12.495000000000006 28.560000000000002 39.27 0 0 0
1286 2 14.280000000000001 26.775000000000006 39.27 0 0 0
1287 1 14.280000000000001 28.560000000000002 37.485 0 0 0
1288 5 12.495000000000006 26.775000000000006 41.055 0 0 0
1289 3 12.495000000000006 28.560000000000002 42.84 0 0 0
1290 1 14.280000000000001 26.775000000000006 42.84 0 0 0
1291 4 14.280000000000001 28.560000000000002 41.055 0 0 0
1292 4 12.495000000000006 26.775000000000006 44.625 0 0 0
1295 1 14.280000000000001 28.560000000000002 44.625 0 0 0
1323 4 14.280000000000001 30.345000000000002 14.280000000000001 0 0 0
1324 1 12.495000000000006 32.129999999999995 17.85 0 0 0
1325 3 14.280000000000001 30.345000000000002 17.85 0 0 0
1326 5 14.280000000000001 32.129999999999995 16.065 0 0 0
1327 1 12.495000000000006 30.345000000000002 19.635 0 0 0
1328 4 12.495000000000006 32.129999999999995 21.42 0 0 0
1329 5 14.280000000000001 30.345000000000002 21.42 0 0 0
1330 3 14.280000000000001 32.129999999999995 19.635 0 0 0
1331 3 12.495000000000006 30.345000000000002 23.205000000000005 0 0 0
1332 4 12.495000000000006 32.129999999999995 24.990000000000002 0 0 0
1333 4 14.280000000000001 30.345000000000002 24.990000000000002 0 0 0
1334 3 14.280000000000001 32.129999999999995 23.205000000000005 0 0 0
1335 1 12.495000000000006 30.345000000000002 26.775000000000006 0 0 0
1336 5 12.495000000000006 32.129999999999995 28.560000000000002 0 0 0
1337 3 14.280000000000001 30.345000000000002 28.560000000000002 0 0 0
1338 4 14.280000000000001 32.129999999999995 26.775000000000006 0 0 0
1339 1 12.495000000000006 30.345000000000002 30.345000000000002 0 0 0
1340 5 12.495000000000006 32.129999999999995 32.129999999999995 0 0 0
1341 2 14.280000000000001 30.345000000000002 32.129999999999995 0 0 0
1342 1 14.280000000000001 32.129999999999995 30.345000000000002 0 0 0
1343 1 12.495000000000006 30.345000000000002 33.915 0 0 0
1344 3 12.495000000000006 32.129999999999995 35.7 0 0 0
1345 2 14.280000000000001 30.345000000000002 35.7 0 0 0
1346 4 14.280000000000001 32.129999999999995 33.915 0 0 0
1347 2 12.495000000000006 30.345000000000002 37.485 0 0 0
1348 3 12.495000000000006 32.129999999999995 39.27 0 0 0
1349 3 14.280000000000001 30.345000000000002 39.27 0 0 0
1350 4 14.280000000000001 32.129999999999995 37.485 0 0 0
1351 3 12.495000000000006 30.345000000000002 41.055 0 0 0
1352 4 12.495000000000006 32.129999999999995 42.84 0 0 0
1353 5 14.280000000000001 30.345000000000002 42.84 0 0 0
1354 3 14.280000000000001 32.129999999999995 41.055 0 0 0
1355 3 12.495000000000006 30.345000000000002 44.625 0 0 0
1358 3 14.280000000000001 32.129999999999995 44.625 0 0 0
1389 1 12.495000000000006 35.7 14.280000000000001 0 0 0
1390 4 14.280000000000001 33.915 14.280000000000001 0 0 0
1391 1 14.280000000000001 35.7 12.495000000000006 0 0 0
1392 1 12.495000000000006 33.915 16.065 0 0 0
1393 2 12.495000000000006 35.7 17.85 0 0 0
1394 1 14.280000000000001 33.915 17.85 0 0 0
1395 1 14.280000000000001 35.7 16.065 0 0 0
1396 4 12.495000000000006 33.915 19.635 0 0 0
1397 5 12.495000000000006 35.7 21.42 0 0 0
1398 1 14.280000000000001 33.915 21.42 0 0 0
1399 1 14.280000000000001 35.7 19.635 0 0 0
1400 4 12.495000000000006 33.915 23.205000000000005 0 0 0
1401 4 12.495000000000006 35.7 24.990000000000002 0 0 0
1402 3 14.280000000000001 33.915 24.990000000000002 0 0 0
1403 1 14.280000000000001 35.7 23.205000000000005 0 0 0
1404 2 12.495000000000006 33.915 26.775000000000006 0 0 0
1405 5 12.495000000000006 35.7 28.560000000000002 0 0 0
1406 5 14.280000000000001 33.915 28.560000000000002 0 0 0
1407 5 14.280000000000001 35.7 26.775000000000006 0 0 0
1408 1 12.495000000000006 33.915 30.345000000000002 0 0 0
1409 4 12.495000000000006 35.7 32.129999999999995 0 0 0
1410 1 14.280000000000001 33.915 32.129999999999995 0 0 0
1411 2 14.280000000000001 35.7 30.345000000000002 0 0 0
1412 3 12.495000000000006 33.915 33.915 0 0 0
1413 1 12.495000000000006 35.7 35.7 0 0 0
1414 2 14.280000000000001 33.915 35.7 0 0 0
1415 5 14.280000000000001 35.7 33.915 0 0 0
1416 3 12.495000000000006 33.915 37.485 0 0 0
1417 5 12.495000000000006 35.7 39.27 0 0 0
1418 3 14.280000000000001 33.915 39.27 0 0 0
1419 5 14.280000000000001 35.7 37.485 0 0 0
1420 1 12.495000000000006 33.915 41.055 0 0 0
1421 3 12.495000000000006 35.7 42.84 0 0 0
1422 1 14.280000000000001 33.915 42.84 0 0 0
1423 1 14.280000000000001 35.7 41.055 0 0 0
1424 4 12.495000000000006 33.915 44.625 0 0 0
1427 4 14.280000000000001 35.7 44.625 0 0 0
1461 5 12.495000000000006 37.485 12.495000000000006 0 0 0
1462 1 12.495000000000006 39.27 14.280000000000001 0 0 0
1463 4 14.280000000000001 37.485 14.280000000000001 0 0 0
1464 1 14.280000000000001 39.27 12.495000000000006 0 0 0
1465 5 12.495000000000006 37.485 16.065 0 0 0
1466 3 12.495000000000006 39.27 17.85 0 0 0
1467 1 14.280000000000001 37.485 17.85 0 0 0
1468 1 14.280000000000001 39.27 16.065 0 0 0
1469 2 12.495000000000006 37.485 19.635 0 0 0
1470 4 12.495000000000006 39.27 21.42 0 0 0
1471 1 14.280000000000001 37.485 21.42 0 0 0
1472 4 14.280000000000001 39.27 19.635 0 0 0
1473 5 12.495000000000006 37.485 23.205000000000005 0 0 0
1474 3 12.495000000000006 39.27 24.990000000000002 0 0 0
1475 2 14.280000000000001 37.485 24.990000000000002 0 0 0
1476 1 14.280000000000001 39.27 23.205000000000005 0 0 0
1477 5 12.495000000000006 37.485 26.775000000000006 0 0 0
1478 1 12.495000000000006 39.27 28.560000000000002 0 0 0
1479 5 14.280000000000001 37.485 28.560000000000002 0 0 0
1480 4 14.280000000000001 39.27 26.775000000000006 0 0 0
1481 1 12.495000000000006 37.485 30.345000000000002 0 0 0
1482 1 12.495000000000006 39.27 32.129999999999995 0 0 0
1483 5 14.280000000000001 37.485 32.129999999999995 0 0 0
1484 3 14.280000000000001 39.27 30.345000000000002 0 0 0
1485 5 12.495000000000006 37.485 33.915 0 0 0
1486 3 12.495000000000006 39.27 35.7 0 0 0
1487 4 14.280000000000001 37.485 35.7 0 0 0
1488 4 14.280000000000001 39.27 33.915 0 0 0
1489 3 12.495000000000006 37.485 37.485 0 0 0
1490 5 12.495000000000006 39.27 39.27 0 0 0
1491 3 14.280000000000001 37.485 39.27 0 0 0
1492 1 14.280000000000001 39.27 37.485 0 0 0
1493 2 12.495000000000006 37.485 41.055 0 0 0
1494 4 12.495000000000006 39.27 42.84 0 0 0
1495 4 14.280000000000001 37.485 42.84 0 0 0
1496 4 14.280000000000001 39.27 41.055 0 0 0
1497 5 12.495000000000006 37.485 44.625 0 0 0
1500 1 14.280000000000001 39.27 44.625 0 0 0
1535 4 12.495000000000006 42.84 10.71 0 0 0
1536 4 14.280000000000001 41.055 10.71 0 0 0
1537 2 12.495000000000006 41.055 12.495000000000006 0 0 0
1538 3 12.495000000000006 42.84 14.280000000000001 0 0 0
1539 1 14.280000000000001 41.055 14.280000000000001 0 0 0
1540 3 14.280000000000001 42.84 12.495000000000006 0 0 0
1541 4 12.495000000000006 41.055 16.065 0 0 0
1542 3 12.495000000000006 42.84 17.85 0 0 0
1543 3 14.280000000000001 41.055 17.85 0 0 0
1544 2 14.280000000000001 42.84 16.065 0 0 0
1545 1 12.495000000000006 41.055 19.635 0 0 0
1546 4 12.495000000000006 42.84 21.42 0 0 0
1547 2 14.280000000000001 41.055 21.42 0 0 0
1548 2 14.280000000000001 42.84 19.635 0 0 0
1549 5 12.495000000000006 41.055 23.205000000000005 0 0 0
1550 4 12.495000000000006 42.84 24.990000000000002 0 0 0
1551 2 14.280000000000001 41.055 24.990000000000002 0 0 0
1552 5 14.280000000000001 42.84 23.205000000000005 0 0 0
1553 5 12.495000000000006 41.055 26.775000000000006 0 0 0
1554 4 12.495000000000006 42.84 28.560000000000002 0 0 0
1555 1 14.280000000000001 41.055 28.560000000000002 0 0 0
1556 4 14.280000000000001 42.84 26.775000000000006 0 0 0
1557 5 12.495000000000006 41.055 30.345000000000002 0 0 0
1558 2 12.495000000000006 42.84 32.129999999999995 0 0 0
1559 2 14.280000000000001 41.055 32.129999999999995 0 0 0
1560 2 14.280000000000001 42.84 30.345000000000002 0 0 0
1561 3 12.495000000000006 41.055 33.915 0 0 0
1562 3 12.495000000000006 42.84 35.7 0 0 0
1563 3 14.280000000000001 41.055 35.7 0 0 0
1564 3 14.280000000000001 42.84 33.915 0 0 0
1565 2 12.495000000000006 41.055 37.485 0 0 0
1566 4 12.495000000000006 42.84 39.27 0 0 0
1567 5 14.280000000000001 41.055 39.27 0 0 0
1568 4 14.280000000000001 42.84 37.485 0 0 0
1569 3 12.495000000000006 41.055 41.055 0 0 0
1570 1 12.495000000000006 42.84 42.84 0 0 0
1571 2 14.280000000000001 41.055 42.84 0 0 0
1572 3 14.280000000000001 42.84 41.055 0 0 0
1573 2 12.495000000000006 41.055 44.625 0 0 0
1576 3 14.280000000000001 42.84 44.625 0 0 0
1614 1 14.280000000000001 44.625 10.71 0 0 0
1615 5 12.495000000000006 44.625 12.495000000000006 0 0 0
1617 5 14.280000000000001 44.625 14.280000000000001 0 0 0
1619 4 12.495000000000006 44.625 16.065 0 0 0
1621 5 14.280000000000001 44.625 17.85 0 0 0
1623 3 12.495000000000006 44.625 19.635 0 0 0
1625 2 14.280000000000001 44.625 21.42 0 0 0
1627 1 12.495000000000006 44.625 23.205000000000005 0 0 0
1629 1 14.280000000000001 44.625 24.990000000000002 0 0 0
1631 1 12.495000000000006 44.625 26.775000000000006 0 0 0
1633 5 14.280000000000001 44.625 28.560000000000002 0 0 0
1635 4 12.495000000000006 44.625 30.345000000000002 0 0 0
1637 3 14.280000000000001 44.625 32.129999999999995 0 0 0
1639 2 12.495000000000006 44.625 33.915 0 0 0
1641 3 14.280000000000001 44.625 35.7 0 0 0
1643 5 12.495000000000006 44.625 37.485 0 0 0
1645 2 14.280000000000001 44.625 39.27 0 0 0
1647 4 12.495000000000006 44.625 41.055 0 0 0
1649 5 14.280000000000001 44.625 42.84 0 0 0
1651 4 12.495000000000006 44.625 44.625 0 0 0
2165 4 16.065 10.71 39.27 0 0 0
2166 3 17.85 10.71 37.485 0 0 0
2167 3 16.065 10.71 42.84 0 0 0
2168 5 17.85 8.925000000000004 42.84 0 0 0