model_files/NiFeCrCoCu/NiFeCrCoCu_30000/NiFeCrCoCu_311/NiFeCrCoCu_311_fcc_30453_temp.data (written by ASE) 

30453 	 atoms 
5  atom types
0.0                      91  xlo xhi
0.0                      91  ylo yhi
0.0                      91  zlo zhi


Atoms 

     1   1                       0      42.840000000000003                  44.625
     2   1                       0                  44.625      42.840000000000003
     3   1                       0                  44.625      46.410000000000004
     4   1                       0      46.410000000000004                  44.625
     5   1      3.5700000000000003      32.129999999999995                  44.625
     6   1      3.5700000000000003      33.914999999999999      42.840000000000003
     7   1      3.5700000000000003      35.700000000000003                  41.055
     8   1      3.5700000000000003      33.914999999999999      46.410000000000004
     9   1      3.5700000000000003      35.700000000000003                  44.625
    10   1      3.5700000000000003      35.700000000000003      48.195000000000007
    11   1      3.5700000000000003      37.484999999999999      39.270000000000003
    12   1      3.5700000000000003      39.270000000000003      37.484999999999999
    13   1      1.7850000000000037      39.270000000000003      42.840000000000003
    14   1      3.5700000000000003      37.484999999999999      42.840000000000003
    15   1      3.5700000000000003      39.270000000000003                  41.055
    16   1      1.7850000000000037      37.484999999999999                  44.625
    17   1      1.7850000000000037      39.270000000000003      46.410000000000004
    18   1      3.5700000000000003      37.484999999999999      46.410000000000004
    19   1      3.5700000000000003      39.270000000000003                  44.625
    20   1      3.5700000000000003      37.484999999999999      49.979999999999997
    21   1      3.5700000000000003      39.270000000000003      48.195000000000007
    22   1      3.5700000000000003      39.270000000000003      51.765000000000001
    23   1      3.5700000000000003                  41.055      35.700000000000003
    24   1      3.5700000000000003      42.840000000000003      33.914999999999999
    25   1      1.7850000000000037      42.840000000000003      39.270000000000003
    26   1      3.5700000000000003                  41.055      39.270000000000003
    27   1      3.5700000000000003      42.840000000000003      37.484999999999999
    28   1      1.7850000000000037                  41.055                  41.055
    29   1      1.7850000000000037      42.840000000000003      42.840000000000003
    30   1      3.5700000000000003                  41.055      42.840000000000003
    31   1      3.5700000000000003      42.840000000000003                  41.055
    32   1      1.7850000000000037                  41.055                  44.625
    33   1      1.7850000000000037      42.840000000000003      46.410000000000004
    34   1      3.5700000000000003                  41.055      46.410000000000004
    35   1      3.5700000000000003      42.840000000000003                  44.625
    36   1      1.7850000000000037                  41.055      48.195000000000007
    37   1      1.7850000000000037      42.840000000000003      49.979999999999997
    38   1      3.5700000000000003                  41.055      49.979999999999997
    39   1      3.5700000000000003      42.840000000000003      48.195000000000007
    40   1      3.5700000000000003                  41.055      53.550000000000004
    41   1      3.5700000000000003      42.840000000000003      51.765000000000001
    42   1      3.5700000000000003      42.840000000000003      55.335000000000008
    43   1      3.5700000000000003                  44.625      32.129999999999995
    44   1      3.5700000000000003                  44.625      35.700000000000003
    45   1      3.5700000000000003      46.410000000000004      33.914999999999999
    46   1      1.7850000000000037                  44.625      37.484999999999999
    47   1      1.7850000000000037      46.410000000000004      39.270000000000003
    48   1      3.5700000000000003                  44.625      39.270000000000003
    49   1      3.5700000000000003      46.410000000000004      37.484999999999999
    50   1      1.7850000000000037                  44.625                  41.055
    51   1      1.7850000000000037      46.410000000000004      42.840000000000003
    52   1      3.5700000000000003                  44.625      42.840000000000003
    53   1      3.5700000000000003      46.410000000000004                  41.055
    54   1      1.7850000000000037                  44.625                  44.625
    55   1      1.7850000000000037      46.410000000000004      46.410000000000004
    56   1      3.5700000000000003                  44.625      46.410000000000004
    57   1      3.5700000000000003      46.410000000000004                  44.625
    58   1      1.7850000000000037                  44.625      48.195000000000007
    59   1      1.7850000000000037      46.410000000000004      49.979999999999997
    60   1      3.5700000000000003                  44.625      49.979999999999997
    61   1      3.5700000000000003      46.410000000000004      48.195000000000007
    62   1      1.7850000000000037                  44.625      51.765000000000001
    63   1      3.5700000000000003                  44.625      53.550000000000004
    64   1      3.5700000000000003      46.410000000000004      51.765000000000001
    65   1      3.5700000000000003                  44.625      57.119999999999997
    66   1      3.5700000000000003      46.410000000000004      55.335000000000008
    67   1      3.5700000000000003      48.195000000000007      35.700000000000003
    68   1      3.5700000000000003      48.195000000000007      39.270000000000003
    69   1      3.5700000000000003      49.979999999999997      37.484999999999999
    70   1      1.7850000000000037      48.195000000000007                  41.055
    71   1      1.7850000000000037      49.979999999999997      42.840000000000003
    72   1      3.5700000000000003      48.195000000000007      42.840000000000003
    73   1      3.5700000000000003      49.979999999999997                  41.055
    74   1      1.7850000000000037      48.195000000000007                  44.625
    75   1      1.7850000000000037      49.979999999999997      46.410000000000004
    76   1      3.5700000000000003      48.195000000000007      46.410000000000004
    77   1      3.5700000000000003      49.979999999999997                  44.625
    78   1      1.7850000000000037      48.195000000000007      48.195000000000007
    79   1      3.5700000000000003      48.195000000000007      49.979999999999997
    80   1      3.5700000000000003      49.979999999999997      48.195000000000007
    81   1      3.5700000000000003      48.195000000000007      53.550000000000004
    82   1      3.5700000000000003      49.979999999999997      51.765000000000001
    83   1      3.5700000000000003      51.765000000000001      39.270000000000003
    84   1      3.5700000000000003      51.765000000000001      42.840000000000003
    85   1      3.5700000000000003      53.550000000000004                  41.055
    86   1      1.7850000000000037      51.765000000000001                  44.625
    87   1      3.5700000000000003      51.765000000000001      46.410000000000004
    88   1      3.5700000000000003      53.550000000000004                  44.625
    89   1      3.5700000000000003      51.765000000000001      49.979999999999997
    90   1      3.5700000000000003      53.550000000000004      48.195000000000007
    91   1      3.5700000000000003      55.335000000000008      42.840000000000003
    92   1      3.5700000000000003      55.335000000000008      46.410000000000004
    93   1      3.5700000000000003      57.119999999999997                  44.625
    94   1      7.1400000000000006      21.420000000000002                  44.625
    95   1      7.1400000000000006      23.205000000000005      42.840000000000003
    96   1      7.1400000000000006      24.990000000000002                  41.055
    97   1      7.1400000000000006      23.205000000000005      46.410000000000004
    98   1      7.1400000000000006      24.990000000000002                  44.625
    99   1      7.1400000000000006      24.990000000000002      48.195000000000007
   100   1      7.1400000000000006      26.775000000000006      39.270000000000003
   101   1      7.1400000000000006      28.560000000000002      37.484999999999999
   102   1      5.3550000000000049      28.560000000000002      42.840000000000003
   103   1      7.1400000000000006      26.775000000000006      42.840000000000003
   104   1      7.1400000000000006      28.560000000000002                  41.055
   105   1      5.3550000000000049      26.775000000000006                  44.625
   106   1      5.3550000000000049      28.560000000000002      46.410000000000004
   107   1      7.1400000000000006      26.775000000000006      46.410000000000004
   108   1      7.1400000000000006      28.560000000000002                  44.625
   109   1      7.1400000000000006      26.775000000000006      49.979999999999997
   110   1      7.1400000000000006      28.560000000000002      48.195000000000007
   111   1      7.1400000000000006      28.560000000000002      51.765000000000001
   112   1      7.1400000000000006      30.345000000000002      35.700000000000003
   113   1      7.1400000000000006      32.129999999999995      33.914999999999999
   114   1      5.3550000000000049      32.129999999999995      39.270000000000003
   115   1      7.1400000000000006      30.345000000000002      39.270000000000003
   116   1      7.1400000000000006      32.129999999999995      37.484999999999999
   117   1      5.3550000000000049      30.345000000000002                  41.055
   118   1      5.3550000000000049      32.129999999999995      42.840000000000003
   119   1      7.1400000000000006      30.345000000000002      42.840000000000003
   120   1      7.1400000000000006      32.129999999999995                  41.055
   121   1      5.3550000000000049      30.345000000000002                  44.625
   122   1      5.3550000000000049      32.129999999999995      46.410000000000004
   123   1      7.1400000000000006      30.345000000000002      46.410000000000004
   124   1      7.1400000000000006      32.129999999999995                  44.625
   125   1      5.3550000000000049      30.345000000000002      48.195000000000007
   126   1      5.3550000000000049      32.129999999999995      49.979999999999997
   127   1      7.1400000000000006      30.345000000000002      49.979999999999997
   128   1      7.1400000000000006      32.129999999999995      48.195000000000007
   129   1      7.1400000000000006      30.345000000000002      53.550000000000004
   130   1      7.1400000000000006      32.129999999999995      51.765000000000001
   131   1      7.1400000000000006      32.129999999999995      55.335000000000008
   132   1      7.1400000000000006      33.914999999999999      32.129999999999995
   133   1      7.1400000000000006      35.700000000000003      30.345000000000002
   134   1      5.3550000000000049      35.700000000000003      35.700000000000003
   135   1      7.1400000000000006      33.914999999999999      35.700000000000003
   136   1      7.1400000000000006      35.700000000000003      33.914999999999999
   137   1      5.3550000000000049      33.914999999999999      37.484999999999999
   138   1      5.3550000000000049      35.700000000000003      39.270000000000003
   139   1      7.1400000000000006      33.914999999999999      39.270000000000003
   140   1      7.1400000000000006      35.700000000000003      37.484999999999999
   141   1      5.3550000000000049      33.914999999999999                  41.055
   142   1      5.3550000000000049      35.700000000000003      42.840000000000003
   143   1      7.1400000000000006      33.914999999999999      42.840000000000003
   144   1      7.1400000000000006      35.700000000000003                  41.055
   145   1      5.3550000000000049      33.914999999999999                  44.625
   146   1      5.3550000000000049      35.700000000000003      46.410000000000004
   147   1      7.1400000000000006      33.914999999999999      46.410000000000004
   148   1      7.1400000000000006      35.700000000000003                  44.625
   149   1      5.3550000000000049      33.914999999999999      48.195000000000007
   150   1      5.3550000000000049      35.700000000000003      49.979999999999997
   151   1      7.1400000000000006      33.914999999999999      49.979999999999997
   152   1      7.1400000000000006      35.700000000000003      48.195000000000007
   153   1      5.3550000000000049      33.914999999999999      51.765000000000001
   154   1      5.3550000000000049      35.700000000000003      53.550000000000004
   155   1      7.1400000000000006      33.914999999999999      53.550000000000004
   156   1      7.1400000000000006      35.700000000000003      51.765000000000001
   157   1      7.1400000000000006      33.914999999999999      57.119999999999997
   158   1      7.1400000000000006      35.700000000000003      55.335000000000008
   159   1      7.1400000000000006      35.700000000000003      58.905000000000008
   160   1      7.1400000000000006      37.484999999999999      28.560000000000002
   161   1      7.1400000000000006      39.270000000000003      26.775000000000006
   162   1      5.3550000000000049      39.270000000000003      32.129999999999995
   163   1      7.1400000000000006      37.484999999999999      32.129999999999995
   164   1      7.1400000000000006      39.270000000000003      30.345000000000002
   165   1      5.3550000000000049      37.484999999999999      33.914999999999999
   166   1      5.3550000000000049      39.270000000000003      35.700000000000003
   167   1      7.1400000000000006      37.484999999999999      35.700000000000003
   168   1      7.1400000000000006      39.270000000000003      33.914999999999999
   169   1      5.3550000000000049      37.484999999999999      37.484999999999999
   170   1      5.3550000000000049      39.270000000000003      39.270000000000003
   171   1      7.1400000000000006      37.484999999999999      39.270000000000003
   172   1      7.1400000000000006      39.270000000000003      37.484999999999999
   173   1      5.3550000000000049      37.484999999999999                  41.055
   174   1      5.3550000000000049      39.270000000000003      42.840000000000003
   175   1      7.1400000000000006      37.484999999999999      42.840000000000003
   176   1      7.1400000000000006      39.270000000000003                  41.055
   177   1      5.3550000000000049      37.484999999999999                  44.625
   178   1      5.3550000000000049      39.270000000000003      46.410000000000004
   179   1      7.1400000000000006      37.484999999999999      46.410000000000004
   180   1      7.1400000000000006      39.270000000000003                  44.625
   181   1      5.3550000000000049      37.484999999999999      48.195000000000007
   182   1      5.3550000000000049      39.270000000000003      49.979999999999997
   183   1      7.1400000000000006      37.484999999999999      49.979999999999997
   184   1      7.1400000000000006      39.270000000000003      48.195000000000007
   185   1      5.3550000000000049      37.484999999999999      51.765000000000001
   186   1      5.3550000000000049      39.270000000000003      53.550000000000004
   187   1      7.1400000000000006      37.484999999999999      53.550000000000004
   188   1      7.1400000000000006      39.270000000000003      51.765000000000001
   189   1      5.3550000000000049      37.484999999999999      55.335000000000008
   190   1      5.3550000000000049      39.270000000000003      57.119999999999997
   191   1      7.1400000000000006      37.484999999999999      57.119999999999997
   192   1      7.1400000000000006      39.270000000000003      55.335000000000008
   193   1      7.1400000000000006      37.484999999999999      60.690000000000005
   194   1      7.1400000000000006      39.270000000000003      58.905000000000008
   195   1      7.1400000000000006      39.270000000000003      62.475000000000001
   196   1      7.1400000000000006                  41.055      24.990000000000002
   197   1      7.1400000000000006      42.840000000000003      23.205000000000005
   198   1      5.3550000000000049      42.840000000000003      28.560000000000002
   199   1      7.1400000000000006                  41.055      28.560000000000002
   200   1      7.1400000000000006      42.840000000000003      26.775000000000006
   201   1      5.3550000000000049                  41.055      30.345000000000002
   202   1      5.3550000000000049      42.840000000000003      32.129999999999995
   203   1      7.1400000000000006                  41.055      32.129999999999995
   204   1      7.1400000000000006      42.840000000000003      30.345000000000002
   205   1      5.3550000000000049                  41.055      33.914999999999999
   206   1      5.3550000000000049      42.840000000000003      35.700000000000003
   207   1      7.1400000000000006                  41.055      35.700000000000003
   208   1      7.1400000000000006      42.840000000000003      33.914999999999999
   209   1      5.3550000000000049                  41.055      37.484999999999999
   210   1      5.3550000000000049      42.840000000000003      39.270000000000003
   211   1      7.1400000000000006                  41.055      39.270000000000003
   212   1      7.1400000000000006      42.840000000000003      37.484999999999999
   213   1      5.3550000000000049                  41.055                  41.055
   214   1      5.3550000000000049      42.840000000000003      42.840000000000003
   215   1      7.1400000000000006                  41.055      42.840000000000003
   216   1      7.1400000000000006      42.840000000000003                  41.055
   217   1      5.3550000000000049                  41.055                  44.625
   218   1      5.3550000000000049      42.840000000000003      46.410000000000004
   219   1      7.1400000000000006                  41.055      46.410000000000004
   220   1      7.1400000000000006      42.840000000000003                  44.625
   221   1      5.3550000000000049                  41.055      48.195000000000007
   222   1      5.3550000000000049      42.840000000000003      49.979999999999997
   223   1      7.1400000000000006                  41.055      49.979999999999997
   224   1      7.1400000000000006      42.840000000000003      48.195000000000007
   225   1      5.3550000000000049                  41.055      51.765000000000001
   226   1      5.3550000000000049      42.840000000000003      53.550000000000004
   227   1      7.1400000000000006                  41.055      53.550000000000004
   228   1      7.1400000000000006      42.840000000000003      51.765000000000001
   229   1      5.3550000000000049                  41.055      55.335000000000008
   230   1      5.3550000000000049      42.840000000000003      57.119999999999997
   231   1      7.1400000000000006                  41.055      57.119999999999997
   232   1      7.1400000000000006      42.840000000000003      55.335000000000008
   233   1      5.3550000000000049                  41.055      58.905000000000008
   234   1      5.3550000000000049      42.840000000000003      60.690000000000005
   235   1      7.1400000000000006                  41.055      60.690000000000005
   236   1      7.1400000000000006      42.840000000000003      58.905000000000008
   237   1      7.1400000000000006                  41.055      64.259999999999991
   238   1      7.1400000000000006      42.840000000000003      62.475000000000001
   239   1      7.1400000000000006      42.840000000000003      66.045000000000002
   240   1      7.1400000000000006                  44.625      21.420000000000002
   241   1      7.1400000000000006                  44.625      24.990000000000002
   242   1      7.1400000000000006      46.410000000000004      23.205000000000005
   243   1      5.3550000000000049                  44.625      26.775000000000006
   244   1      5.3550000000000049      46.410000000000004      28.560000000000002
   245   1      7.1400000000000006                  44.625      28.560000000000002
   246   1      7.1400000000000006      46.410000000000004      26.775000000000006
   247   1      5.3550000000000049                  44.625      30.345000000000002
   248   1      5.3550000000000049      46.410000000000004      32.129999999999995
   249   1      7.1400000000000006                  44.625      32.129999999999995
   250   1      7.1400000000000006      46.410000000000004      30.345000000000002
   251   1      5.3550000000000049                  44.625      33.914999999999999
   252   1      5.3550000000000049      46.410000000000004      35.700000000000003
   253   1      7.1400000000000006                  44.625      35.700000000000003
   254   1      7.1400000000000006      46.410000000000004      33.914999999999999
   255   1      5.3550000000000049                  44.625      37.484999999999999
   256   1      5.3550000000000049      46.410000000000004      39.270000000000003
   257   1      7.1400000000000006                  44.625      39.270000000000003
   258   1      7.1400000000000006      46.410000000000004      37.484999999999999
   259   1      5.3550000000000049                  44.625                  41.055
   260   1      5.3550000000000049      46.410000000000004      42.840000000000003
   261   1      7.1400000000000006                  44.625      42.840000000000003
   262   1      7.1400000000000006      46.410000000000004                  41.055
   263   1      5.3550000000000049                  44.625                  44.625
   264   1      5.3550000000000049      46.410000000000004      46.410000000000004
   265   1      7.1400000000000006                  44.625      46.410000000000004
   266   1      7.1400000000000006      46.410000000000004                  44.625
   267   1      5.3550000000000049                  44.625      48.195000000000007
   268   1      5.3550000000000049      46.410000000000004      49.979999999999997
   269   1      7.1400000000000006                  44.625      49.979999999999997
   270   1      7.1400000000000006      46.410000000000004      48.195000000000007
   271   1      5.3550000000000049                  44.625      51.765000000000001
   272   1      5.3550000000000049      46.410000000000004      53.550000000000004
   273   1      7.1400000000000006                  44.625      53.550000000000004
   274   1      7.1400000000000006      46.410000000000004      51.765000000000001
   275   1      5.3550000000000049                  44.625      55.335000000000008
   276   1      5.3550000000000049      46.410000000000004      57.119999999999997
   277   1      7.1400000000000006                  44.625      57.119999999999997
   278   1      7.1400000000000006      46.410000000000004      55.335000000000008
   279   1      5.3550000000000049                  44.625      58.905000000000008
   280   1      5.3550000000000049      46.410000000000004      60.690000000000005
   281   1      7.1400000000000006                  44.625      60.690000000000005
   282   1      7.1400000000000006      46.410000000000004      58.905000000000008
   283   1      5.3550000000000049                  44.625      62.475000000000001
   284   1      7.1400000000000006                  44.625      64.259999999999991
   285   1      7.1400000000000006      46.410000000000004      62.475000000000001
   286   1      7.1400000000000006                  44.625      67.829999999999998
   287   1      7.1400000000000006      46.410000000000004      66.045000000000002
   288   1      7.1400000000000006      48.195000000000007      24.990000000000002
   289   1      7.1400000000000006      48.195000000000007      28.560000000000002
   290   1      7.1400000000000006      49.979999999999997      26.775000000000006
   291   1      5.3550000000000049      48.195000000000007      30.345000000000002
   292   1      5.3550000000000049      49.979999999999997      32.129999999999995
   293   1      7.1400000000000006      48.195000000000007      32.129999999999995
   294   1      7.1400000000000006      49.979999999999997      30.345000000000002
   295   1      5.3550000000000049      48.195000000000007      33.914999999999999
   296   1      5.3550000000000049      49.979999999999997      35.700000000000003
   297   1      7.1400000000000006      48.195000000000007      35.700000000000003
   298   1      7.1400000000000006      49.979999999999997      33.914999999999999
   299   1      5.3550000000000049      48.195000000000007      37.484999999999999
   300   1      5.3550000000000049      49.979999999999997      39.270000000000003
   301   1      7.1400000000000006      48.195000000000007      39.270000000000003
   302   1      7.1400000000000006      49.979999999999997      37.484999999999999
   303   1      5.3550000000000049      48.195000000000007                  41.055
   304   1      5.3550000000000049      49.979999999999997      42.840000000000003
   305   1      7.1400000000000006      48.195000000000007      42.840000000000003
   306   1      7.1400000000000006      49.979999999999997                  41.055
   307   1      5.3550000000000049      48.195000000000007                  44.625
   308   1      5.3550000000000049      49.979999999999997      46.410000000000004
   309   1      7.1400000000000006      48.195000000000007      46.410000000000004
   310   1      7.1400000000000006      49.979999999999997                  44.625
   311   1      5.3550000000000049      48.195000000000007      48.195000000000007
   312   1      5.3550000000000049      49.979999999999997      49.979999999999997
   313   1      7.1400000000000006      48.195000000000007      49.979999999999997
   314   1      7.1400000000000006      49.979999999999997      48.195000000000007
   315   1      5.3550000000000049      48.195000000000007      51.765000000000001
   316   1      5.3550000000000049      49.979999999999997      53.550000000000004
   317   1      7.1400000000000006      48.195000000000007      53.550000000000004
   318   1      7.1400000000000006      49.979999999999997      51.765000000000001
   319   1      5.3550000000000049      48.195000000000007      55.335000000000008
   320   1      5.3550000000000049      49.979999999999997      57.119999999999997
   321   1      7.1400000000000006      48.195000000000007      57.119999999999997
   322   1      7.1400000000000006      49.979999999999997      55.335000000000008
   323   1      5.3550000000000049      48.195000000000007      58.905000000000008
   324   1      7.1400000000000006      48.195000000000007      60.690000000000005
   325   1      7.1400000000000006      49.979999999999997      58.905000000000008
   326   1      7.1400000000000006      48.195000000000007      64.259999999999991
   327   1      7.1400000000000006      49.979999999999997      62.475000000000001
   328   1      7.1400000000000006      51.765000000000001      28.560000000000002
   329   1      7.1400000000000006      51.765000000000001      32.129999999999995
   330   1      7.1400000000000006      53.550000000000004      30.345000000000002
   331   1      5.3550000000000049      51.765000000000001      33.914999999999999
   332   1      5.3550000000000049      53.550000000000004      35.700000000000003
   333   1      7.1400000000000006      51.765000000000001      35.700000000000003
   334   1      7.1400000000000006      53.550000000000004      33.914999999999999
   335   1      5.3550000000000049      51.765000000000001      37.484999999999999
   336   1      5.3550000000000049      53.550000000000004      39.270000000000003
   337   1      7.1400000000000006      51.765000000000001      39.270000000000003
   338   1      7.1400000000000006      53.550000000000004      37.484999999999999
   339   1      5.3550000000000049      51.765000000000001                  41.055
   340   1      5.3550000000000049      53.550000000000004      42.840000000000003
   341   1      7.1400000000000006      51.765000000000001      42.840000000000003
   342   1      7.1400000000000006      53.550000000000004                  41.055
   343   1      5.3550000000000049      51.765000000000001                  44.625
   344   1      5.3550000000000049      53.550000000000004      46.410000000000004
   345   1      7.1400000000000006      51.765000000000001      46.410000000000004
   346   1      7.1400000000000006      53.550000000000004                  44.625
   347   1      5.3550000000000049      51.765000000000001      48.195000000000007
   348   1      5.3550000000000049      53.550000000000004      49.979999999999997
   349   1      7.1400000000000006      51.765000000000001      49.979999999999997
   350   1      7.1400000000000006      53.550000000000004      48.195000000000007
   351   1      5.3550000000000049      51.765000000000001      51.765000000000001
   352   1      5.3550000000000049      53.550000000000004      53.550000000000004
   353   1      7.1400000000000006      51.765000000000001      53.550000000000004
   354   1      7.1400000000000006      53.550000000000004      51.765000000000001
   355   1      5.3550000000000049      51.765000000000001      55.335000000000008
   356   1      7.1400000000000006      51.765000000000001      57.119999999999997
   357   1      7.1400000000000006      53.550000000000004      55.335000000000008
   358   1      7.1400000000000006      51.765000000000001      60.690000000000005