model_files/Cu/Cu_30000/Cu_432/data.Cu_432_fcc_29911 (written by ASE) 

29911 	 atoms 
1  atom types
0.0                     108  xlo xhi
0.0                     108  ylo yhi
0.0                     108  zlo zhi


Atoms 

     1   1      1.8049999999999997      52.344999999999999      54.149999999999999
     2   1      1.8049999999999997      54.149999999999999      52.344999999999999
     3   1                       0      54.149999999999999      54.149999999999999
     4   1      1.8049999999999997      54.149999999999999      55.954999999999991
     5   1      1.8049999999999997      55.954999999999991      54.149999999999999
     6   1      5.4149999999999991                  45.125      54.149999999999999
     7   1      3.6099999999999994      48.734999999999999      52.344999999999999
     8   1      5.4149999999999991      46.929999999999993      52.344999999999999
     9   1      5.4149999999999991      48.734999999999999      50.539999999999992
    10   1      3.6099999999999994      48.734999999999999      55.954999999999991
    11   1      5.4149999999999991      46.929999999999993      55.954999999999991
    12   1      5.4149999999999991      48.734999999999999      54.149999999999999
    13   1      5.4149999999999991      48.734999999999999      57.759999999999991
    14   1      3.6099999999999994      52.344999999999999      48.734999999999999
    15   1      5.4149999999999991      50.539999999999992      48.734999999999999
    16   1      5.4149999999999991      52.344999999999999      46.929999999999993
    17   1      3.6099999999999994      50.539999999999992      50.539999999999992
    18   1      3.6099999999999994      52.344999999999999      52.344999999999999
    19   1      5.4149999999999991      50.539999999999992      52.344999999999999
    20   1      5.4149999999999991      52.344999999999999      50.539999999999992
    21   1      3.6099999999999994      50.539999999999992      54.149999999999999
    22   1      3.6099999999999994      52.344999999999999      55.954999999999991
    23   1      5.4149999999999991      50.539999999999992      55.954999999999991
    24   1      5.4149999999999991      52.344999999999999      54.149999999999999
    25   1      3.6099999999999994      50.539999999999992      57.759999999999991
    26   1      3.6099999999999994      52.344999999999999      59.564999999999998
    27   1      5.4149999999999991      50.539999999999992      59.564999999999998
    28   1      5.4149999999999991      52.344999999999999      57.759999999999991
    29   1      5.4149999999999991      52.344999999999999      61.369999999999997
    30   1      5.4149999999999991      54.149999999999999                  45.125
    31   1      3.6099999999999994      55.954999999999991      48.734999999999999
    32   1      5.4149999999999991      54.149999999999999      48.734999999999999
    33   1      5.4149999999999991      55.954999999999991      46.929999999999993
    34   1      3.6099999999999994      54.149999999999999      50.539999999999992
    35   1      3.6099999999999994      55.954999999999991      52.344999999999999
    36   1      5.4149999999999991      54.149999999999999      52.344999999999999
    37   1      5.4149999999999991      55.954999999999991      50.539999999999992
    38   1      3.6099999999999994      54.149999999999999      54.149999999999999
    39   1      3.6099999999999994      55.954999999999991      55.954999999999991
    40   1      5.4149999999999991      54.149999999999999      55.954999999999991
    41   1      5.4149999999999991      55.954999999999991      54.149999999999999
    42   1      3.6099999999999994      54.149999999999999      57.759999999999991
    43   1      3.6099999999999994      55.954999999999991      59.564999999999998
    44   1      5.4149999999999991      54.149999999999999      59.564999999999998
    45   1      5.4149999999999991      55.954999999999991      57.759999999999991
    46   1      5.4149999999999991      54.149999999999999      63.175000000000011
    47   1      5.4149999999999991      55.954999999999991      61.369999999999997
    48   1      5.4149999999999991      57.759999999999991      48.734999999999999
    49   1      3.6099999999999994      57.759999999999991      50.539999999999992
    50   1      3.6099999999999994      59.564999999999998      52.344999999999999
    51   1      5.4149999999999991      57.759999999999991      52.344999999999999
    52   1      5.4149999999999991      59.564999999999998      50.539999999999992
    53   1      3.6099999999999994      57.759999999999991      54.149999999999999
    54   1      3.6099999999999994      59.564999999999998      55.954999999999991
    55   1      5.4149999999999991      57.759999999999991      55.954999999999991
    56   1      5.4149999999999991      59.564999999999998      54.149999999999999
    57   1      3.6099999999999994      57.759999999999991      57.759999999999991
    58   1      5.4149999999999991      57.759999999999991      59.564999999999998
    59   1      5.4149999999999991      59.564999999999998      57.759999999999991
    60   1      5.4149999999999991      61.369999999999997      52.344999999999999
    61   1      5.4149999999999991      61.369999999999997      55.954999999999991
    62   1      5.4149999999999991      63.175000000000011      54.149999999999999
    63   1      9.0249999999999986      41.515000000000001      54.149999999999999
    64   1      9.0249999999999986                  45.125      46.929999999999993
    65   1      7.2199999999999989                  45.125      52.344999999999999
    66   1      9.0249999999999986                   43.32      52.344999999999999
    67   1      9.0249999999999986                  45.125      50.539999999999992
    68   1      7.2199999999999989                   43.32      54.149999999999999
    69   1      7.2199999999999989                  45.125      55.954999999999991
    70   1      9.0249999999999986                   43.32      55.954999999999991
    71   1      9.0249999999999986                  45.125      54.149999999999999
    72   1      9.0249999999999986                  45.125      57.759999999999991
    73   1      9.0249999999999986                  45.125      61.369999999999997
    74   1      9.0249999999999986      46.929999999999993                  45.125
    75   1      7.2199999999999989      48.734999999999999      48.734999999999999
    76   1      9.0249999999999986      46.929999999999993      48.734999999999999
    77   1      9.0249999999999986      48.734999999999999      46.929999999999993
    78   1      7.2199999999999989      46.929999999999993      50.539999999999992
    79   1      7.2199999999999989      48.734999999999999      52.344999999999999
    80   1      9.0249999999999986      46.929999999999993      52.344999999999999
    81   1      9.0249999999999986      48.734999999999999      50.539999999999992
    82   1      7.2199999999999989      46.929999999999993      54.149999999999999
    83   1      7.2199999999999989      48.734999999999999      55.954999999999991
    84   1      9.0249999999999986      46.929999999999993      55.954999999999991
    85   1      9.0249999999999986      48.734999999999999      54.149999999999999
    86   1      7.2199999999999989      46.929999999999993      57.759999999999991
    87   1      7.2199999999999989      48.734999999999999      59.564999999999998
    88   1      9.0249999999999986      46.929999999999993      59.564999999999998
    89   1      9.0249999999999986      48.734999999999999      57.759999999999991
    90   1      9.0249999999999986      46.929999999999993      63.175000000000011
    91   1      9.0249999999999986      48.734999999999999      61.369999999999997
    92   1      7.2199999999999989      52.344999999999999                  45.125
    93   1      9.0249999999999986      50.539999999999992                  45.125
    94   1      9.0249999999999986      52.344999999999999                   43.32
    95   1      7.2199999999999989      50.539999999999992      46.929999999999993
    96   1      7.2199999999999989      52.344999999999999      48.734999999999999
    97   1      9.0249999999999986      50.539999999999992      48.734999999999999
    98   1      9.0249999999999986      52.344999999999999      46.929999999999993
    99   1      7.2199999999999989      50.539999999999992      50.539999999999992
   100   1      7.2199999999999989      52.344999999999999      52.344999999999999
   101   1      9.0249999999999986      50.539999999999992      52.344999999999999
   102   1      9.0249999999999986      52.344999999999999      50.539999999999992
   103   1      7.2199999999999989      50.539999999999992      54.149999999999999
   104   1      7.2199999999999989      52.344999999999999      55.954999999999991
   105   1      9.0249999999999986      50.539999999999992      55.954999999999991
   106   1      9.0249999999999986      52.344999999999999      54.149999999999999
   107   1      7.2199999999999989      50.539999999999992      57.759999999999991
   108   1      7.2199999999999989      52.344999999999999      59.564999999999998
   109   1      9.0249999999999986      50.539999999999992      59.564999999999998
   110   1      9.0249999999999986      52.344999999999999      57.759999999999991
   111   1      7.2199999999999989      50.539999999999992      61.369999999999997
   112   1      7.2199999999999989      52.344999999999999      63.175000000000011
   113   1      9.0249999999999986      50.539999999999992      63.175000000000011
   114   1      9.0249999999999986      52.344999999999999      61.369999999999997
   115   1      9.0249999999999986      52.344999999999999      64.980000000000004
   116   1      9.0249999999999986      54.149999999999999      41.515000000000001
   117   1      7.2199999999999989      54.149999999999999                   43.32
   118   1      7.2199999999999989      55.954999999999991                  45.125
   119   1      9.0249999999999986      54.149999999999999                  45.125
   120   1      9.0249999999999986      55.954999999999991                   43.32
   121   1      7.2199999999999989      54.149999999999999      46.929999999999993
   122   1      7.2199999999999989      55.954999999999991      48.734999999999999
   123   1      9.0249999999999986      54.149999999999999      48.734999999999999
   124   1      9.0249999999999986      55.954999999999991      46.929999999999993
   125   1      7.2199999999999989      54.149999999999999      50.539999999999992
   126   1      7.2199999999999989      55.954999999999991      52.344999999999999
   127   1      9.0249999999999986      54.149999999999999      52.344999999999999
   128   1      9.0249999999999986      55.954999999999991      50.539999999999992
   129   1      7.2199999999999989      54.149999999999999      54.149999999999999
   130   1      7.2199999999999989      55.954999999999991      55.954999999999991
   131   1      9.0249999999999986      54.149999999999999      55.954999999999991
   132   1      9.0249999999999986      55.954999999999991      54.149999999999999
   133   1      7.2199999999999989      54.149999999999999      57.759999999999991
   134   1      7.2199999999999989      55.954999999999991      59.564999999999998
   135   1      9.0249999999999986      54.149999999999999      59.564999999999998
   136   1      9.0249999999999986      55.954999999999991      57.759999999999991
   137   1      7.2199999999999989      54.149999999999999      61.369999999999997
   138   1      7.2199999999999989      55.954999999999991      63.175000000000011
   139   1      9.0249999999999986      54.149999999999999      63.175000000000011
   140   1      9.0249999999999986      55.954999999999991      61.369999999999997
   141   1      7.2199999999999989      54.149999999999999      64.980000000000004
   142   1      9.0249999999999986      54.149999999999999      66.785000000000011
   143   1      9.0249999999999986      55.954999999999991      64.980000000000004
   144   1      9.0249999999999986      57.759999999999991                  45.125
   145   1      7.2199999999999989      57.759999999999991      46.929999999999993
   146   1      7.2199999999999989      59.564999999999998      48.734999999999999
   147   1      9.0249999999999986      57.759999999999991      48.734999999999999
   148   1      9.0249999999999986      59.564999999999998      46.929999999999993
   149   1      7.2199999999999989      57.759999999999991      50.539999999999992
   150   1      7.2199999999999989      59.564999999999998      52.344999999999999
   151   1      9.0249999999999986      57.759999999999991      52.344999999999999
   152   1      9.0249999999999986      59.564999999999998      50.539999999999992
   153   1      7.2199999999999989      57.759999999999991      54.149999999999999
   154   1      7.2199999999999989      59.564999999999998      55.954999999999991
   155   1      9.0249999999999986      57.759999999999991      55.954999999999991
   156   1      9.0249999999999986      59.564999999999998      54.149999999999999
   157   1      7.2199999999999989      57.759999999999991      57.759999999999991
   158   1      7.2199999999999989      59.564999999999998      59.564999999999998
   159   1      9.0249999999999986      57.759999999999991      59.564999999999998
   160   1      9.0249999999999986      59.564999999999998      57.759999999999991
   161   1      7.2199999999999989      57.759999999999991      61.369999999999997
   162   1      9.0249999999999986      57.759999999999991      63.175000000000011
   163   1      9.0249999999999986      59.564999999999998      61.369999999999997
   164   1      9.0249999999999986      61.369999999999997                  45.125
   165   1      9.0249999999999986      61.369999999999997      48.734999999999999
   166   1      9.0249999999999986      63.175000000000011      46.929999999999993
   167   1      7.2199999999999989      61.369999999999997      50.539999999999992
   168   1      7.2199999999999989      63.175000000000011      52.344999999999999
   169   1      9.0249999999999986      61.369999999999997      52.344999999999999
   170   1      9.0249999999999986      63.175000000000011      50.539999999999992
   171   1      7.2199999999999989      61.369999999999997      54.149999999999999
   172   1      7.2199999999999989      63.175000000000011      55.954999999999991
   173   1      9.0249999999999986      61.369999999999997      55.954999999999991
   174   1      9.0249999999999986      63.175000000000011      54.149999999999999
   175   1      7.2199999999999989      61.369999999999997      57.759999999999991
   176   1      9.0249999999999986      61.369999999999997      59.564999999999998
   177   1      9.0249999999999986      63.175000000000011      57.759999999999991
   178   1      9.0249999999999986      61.369999999999997      63.175000000000011
   179   1      9.0249999999999986      63.175000000000011      61.369999999999997
   180   1      9.0249999999999986      64.980000000000004      52.344999999999999
   181   1      7.2199999999999989      64.980000000000004      54.149999999999999
   182   1      9.0249999999999986      64.980000000000004      55.954999999999991
   183   1      9.0249999999999986      66.785000000000011      54.149999999999999
   184   1      12.634999999999998      37.905000000000001      50.539999999999992
   185   1      12.634999999999998      37.905000000000001      54.149999999999999
   186   1      12.634999999999998      37.905000000000001      57.759999999999991
   187   1      10.829999999999998      41.515000000000001      48.734999999999999
   188   1      12.634999999999998      39.710000000000001      48.734999999999999
   189   1      12.634999999999998      41.515000000000001      46.929999999999993
   190   1      10.829999999999998      41.515000000000001      52.344999999999999
   191   1      12.634999999999998      39.710000000000001      52.344999999999999
   192   1      12.634999999999998      41.515000000000001      50.539999999999992
   193   1      10.829999999999998      39.710000000000001      54.149999999999999
   194   1      10.829999999999998      41.515000000000001      55.954999999999991
   195   1      12.634999999999998      39.710000000000001      55.954999999999991
   196   1      12.634999999999998      41.515000000000001      54.149999999999999
   197   1      10.829999999999998      41.515000000000001      59.564999999999998
   198   1      12.634999999999998      39.710000000000001      59.564999999999998
   199   1      12.634999999999998      41.515000000000001      57.759999999999991
   200   1      12.634999999999998      41.515000000000001      61.369999999999997
   201   1      10.829999999999998                  45.125                  45.125
   202   1      12.634999999999998                   43.32                  45.125
   203   1      12.634999999999998                  45.125                   43.32
   204   1      10.829999999999998                   43.32      46.929999999999993
   205   1      10.829999999999998                  45.125      48.734999999999999
   206   1      12.634999999999998                   43.32      48.734999999999999
   207   1      12.634999999999998                  45.125      46.929999999999993
   208   1      10.829999999999998                   43.32      50.539999999999992
   209   1      10.829999999999998                  45.125      52.344999999999999
   210   1      12.634999999999998                   43.32      52.344999999999999
   211   1      12.634999999999998                  45.125      50.539999999999992
   212   1      10.829999999999998                   43.32      54.149999999999999
   213   1      10.829999999999998                  45.125      55.954999999999991
   214   1      12.634999999999998                   43.32      55.954999999999991
   215   1      12.634999999999998                  45.125      54.149999999999999
   216   1      10.829999999999998                   43.32      57.759999999999991
   217   1      10.829999999999998                  45.125      59.564999999999998
   218   1      12.634999999999998                   43.32      59.564999999999998
   219   1      12.634999999999998                  45.125      57.759999999999991
   220   1      10.829999999999998                   43.32      61.369999999999997
   221   1      10.829999999999998                  45.125      63.175000000000011
   222   1      12.634999999999998                   43.32      63.175000000000011
   223   1      12.634999999999998                  45.125      61.369999999999997
   224   1      12.634999999999998                  45.125      64.980000000000004
   225   1      10.829999999999998      48.734999999999999      41.515000000000001
   226   1      12.634999999999998      46.929999999999993      41.515000000000001
   227   1      12.634999999999998      48.734999999999999      39.710000000000001
   228   1      10.829999999999998      46.929999999999993                   43.32
   229   1      10.829999999999998      48.734999999999999                  45.125
   230   1      12.634999999999998      46.929999999999993                  45.125
   231   1      12.634999999999998      48.734999999999999                   43.32
   232   1      10.829999999999998      46.929999999999993      46.929999999999993
   233   1      10.829999999999998      48.734999999999999      48.734999999999999
   234   1      12.634999999999998      46.929999999999993      48.734999999999999
   235   1      12.634999999999998      48.734999999999999      46.929999999999993
   236   1      10.829999999999998      46.929999999999993      50.539999999999992
   237   1      10.829999999999998      48.734999999999999      52.344999999999999
   238   1      12.634999999999998      46.929999999999993      52.344999999999999
   239   1      12.634999999999998      48.734999999999999      50.539999999999992
   240   1      10.829999999999998      46.929999999999993      54.149999999999999
   241   1      10.829999999999998      48.734999999999999      55.954999999999991
   242   1      12.634999999999998      46.929999999999993      55.954999999999991
   243   1      12.634999999999998      48.734999999999999      54.149999999999999
   244   1      10.829999999999998      46.929999999999993      57.759999999999991
   245   1      10.829999999999998      48.734999999999999      59.564999999999998
   246   1      12.634999999999998      46.929999999999993      59.564999999999998
   247   1      12.634999999999998      48.734999999999999      57.759999999999991
   248   1      10.829999999999998      46.929999999999993      61.369999999999997
   249   1      10.829999999999998      48.734999999999999      63.175000000000011
   250   1      12.634999999999998      46.929999999999993      63.175000000000011
   251   1      12.634999999999998      48.734999999999999      61.369999999999997
   252   1      10.829999999999998      46.929999999999993      64.980000000000004
   253   1      10.829999999999998      48.734999999999999      66.785000000000011
   254   1      12.634999999999998      46.929999999999993      66.785000000000011
   255   1      12.634999999999998      48.734999999999999      64.980000000000004
   256   1      12.634999999999998      48.734999999999999      68.589999999999989
   257   1      12.634999999999998      50.539999999999992      37.905000000000001
   258   1      10.829999999999998      52.344999999999999      41.515000000000001
   259   1      12.634999999999998      50.539999999999992      41.515000000000001
   260   1      12.634999999999998      52.344999999999999      39.710000000000001
   261   1      10.829999999999998      50.539999999999992                   43.32
   262   1      10.829999999999998      52.344999999999999                  45.125
   263   1      12.634999999999998      50.539999999999992                  45.125
   264   1      12.634999999999998      52.344999999999999                   43.32
   265   1      10.829999999999998      50.539999999999992      46.929999999999993
   266   1      10.829999999999998      52.344999999999999      48.734999999999999
   267   1      12.634999999999998      50.539999999999992      48.734999999999999
   268   1      12.634999999999998      52.344999999999999      46.929999999999993
   269   1      10.829999999999998      50.539999999999992      50.539999999999992
   270   1      10.829999999999998      52.344999999999999      52.344999999999999
   271   1      12.634999999999998      50.539999999999992      52.344999999999999
   272   1      12.634999999999998      52.344999999999999      50.539999999999992
   273   1      10.829999999999998      50.539999999999992      54.149999999999999
   274   1      10.829999999999998      52.344999999999999      55.954999999999991
   275   1      12.634999999999998      50.539999999999992      55.954999999999991
   276   1      12.634999999999998      52.344999999999999      54.149999999999999
   277   1      10.829999999999998      50.539999999999992      57.759999999999991
   278   1      10.829999999999998      52.344999999999999      59.564999999999998
   279   1      12.634999999999998      50.539999999999992      59.564999999999998
   280   1      12.634999999999998      52.344999999999999      57.759999999999991
   281   1      10.829999999999998      50.539999999999992      61.369999999999997
   282   1      10.829999999999998      52.344999999999999      63.175000000000011
   283   1      12.634999999999998      50.539999999999992      63.175000000000011
   284   1      12.634999999999998      52.344999999999999      61.369999999999997
   285   1      10.829999999999998      50.539999999999992      64.980000000000004
   286   1      10.829999999999998      52.344999999999999      66.785000000000011
   287   1      12.634999999999998      50.539999999999992      66.785000000000011
   288   1      12.634999999999998      52.344999999999999      64.980000000000004
   289   1      12.634999999999998      50.539999999999992       70.39500000000001
   290   1      12.634999999999998      52.344999999999999      68.589999999999989
   291   1      12.634999999999998      54.149999999999999      37.905000000000001
   292   1      10.829999999999998      54.149999999999999      39.710000000000001
   293   1      10.829999999999998      55.954999999999991      41.515000000000001
   294   1      12.634999999999998      54.149999999999999      41.515000000000001
   295   1      12.634999999999998      55.954999999999991      39.710000000000001
   296   1      10.829999999999998      54.149999999999999                   43.32
   297   1      10.829999999999998      55.954999999999991                  45.125
   298   1      12.634999999999998      54.149999999999999                  45.125
   299   1      12.634999999999998      55.954999999999991                   43.32
   300   1      10.829999999999998      54.149999999999999      46.929999999999993
   301   1      10.829999999999998      55.954999999999991      48.734999999999999
   302   1      12.634999999999998      54.149999999999999      48.734999999999999
   303   1      12.634999999999998      55.954999999999991      46.929999999999993
   304   1      10.829999999999998      54.149999999999999      50.539999999999992
   305   1      10.829999999999998      55.954999999999991      52.344999999999999
   306   1      12.634999999999998      54.149999999999999      52.344999999999999
   307   1      12.634999999999998      55.954999999999991      50.539999999999992
   308   1      10.829999999999998      54.149999999999999      54.149999999999999
   309   1      10.829999999999998      55.954999999999991      55.954999999999991
   310   1      12.634999999999998      54.149999999999999      55.954999999999991
   311   1      12.634999999999998      55.954999999999991      54.149999999999999
   312   1      10.829999999999998      54.149999999999999      57.759999999999991
   313   1      10.829999999999998      55.954999999999991      59.564999999999998
   314   1      12.634999999999998      54.149999999999999      59.564999999999998
   315   1      12.634999999999998      55.954999999999991      57.759999999999991
   316   1      10.829999999999998      54.149999999999999      61.369999999999997
   317   1      10.829999999999998      55.954999999999991      63.175000000000011
   318   1      12.634999999999998      54.149999999999999      63.175000000000011
   319   1      12.634999999999998      55.954999999999991      61.369999999999997
   320   1      10.829999999999998      54.149999999999999      64.980000000000004
   321   1      10.829999999999998      55.954999999999991      66.785000000000011
   322   1      12.634999999999998      54.149999999999999      66.785000000000011
   323   1      12.634999999999998      55.954999999999991      64.980000000000004
   324   1      10.829999999999998      54.149999999999999      68.589999999999989
   325   1      12.634999999999998      54.149999999999999       70.39500000000001
   326   1      12.634999999999998      55.954999999999991      68.589999999999989
   327   1      12.634999999999998      57.759999999999991      37.905000000000001
   328   1      10.829999999999998      59.564999999999998      41.515000000000001
   329   1      12.634999999999998      57.759999999999991      41.515000000000001
   330   1      12.634999999999998      59.564999999999998      39.710000000000001
   331   1      10.829999999999998      57.759999999999991                   43.32
   332   1      10.829999999999998      59.564999999999998                  45.125
   333   1      12.634999999999998      57.759999999999991                  45.125
   334   1      12.634999999999998      59.564999999999998                   43.32
   335   1      10.829999999999998      57.759999999999991      46.929999999999993
   336   1      10.829999999999998      59.564999999999998      48.734999999999999
   337   1      12.634999999999998      57.759999999999991      48.734999999999999
   338   1      12.634999999999998      59.564999999999998      46.929999999999993
   339   1      10.829999999999998      57.759999999999991      50.539999999999992
   340   1      10.829999999999998      59.564999999999998      52.344999999999999
   341   1      12.634999999999998      57.759999999999991      52.344999999999999
   342   1      12.634999999999998      59.564999999999998      50.539999999999992
   343   1      10.829999999999998      57.759999999999991      54.149999999999999
   344   1      10.829999999999998      59.564999999999998      55.954999999999991
   345   1      12.634999999999998      57.759999999999991      55.954999999999991
   346   1      12.634999999999998      59.564999999999998      54.149999999999999
   347   1      10.829999999999998      57.759999999999991      57.759999999999991
   348   1      10.829999999999998      59.564999999999998      59.564999999999998
   349   1      12.634999999999998      57.759999999999991      59.564999999999998
   350   1      12.634999999999998      59.564999999999998      57.759999999999991
   351   1      10.829999999999998      57.759999999999991      61.369999999999997
   352   1      10.829999999999998      59.564999999999998      63.175000000000011
   353   1      12.634999999999998      57.759999999999991      63.175000000000011
   354   1      12.634999999999998      59.564999999999998      61.369999999999997
   355   1      10.829999999999998      57.759999999999991      64.980000000000004
   356   1      10.829999999999998      59.564999999999998      66.785000000000011
   357   1      12.634999999999998      57.759999999999991      66.785000000000011
   358   1      12.634999999999998      59.564999999999998      64.980000000000004