model_files/Co/Co_30000/Co_540/data.Co_540_hcp_29765 (written by ASE) 

29765 	 atoms 
1  atom types
0.0                      70  xlo xhi
0.0                      70  ylo yhi
0.0                      70  zlo zhi


Atoms 

     1   1      69.999999999999986      33.884999999999998      33.884999999999998
     2   1      1.2549999999999955      32.629999999999995      33.884999999999998
     3   1      1.2549999999999955      33.884999999999998      32.629999999999995
     4   1      69.999999999999986      33.884999999999998      36.394999999999996
     5   1      1.2549999999999955      32.629999999999995      36.394999999999996
     6   1      1.2549999999999955      33.884999999999998      35.139999999999993
     7   1      1.2549999999999955      33.884999999999998      37.649999999999991
     8   1      69.999999999999986      36.394999999999996      33.884999999999998
     9   1      1.2549999999999955      35.139999999999993      33.884999999999998
    10   1      1.2549999999999955      36.394999999999996      32.629999999999995
    11   1      69.999999999999986      35.139999999999993      35.139999999999993
    12   1      69.999999999999986      36.394999999999996      36.394999999999996
    13   1      1.2549999999999955      35.139999999999993      36.394999999999996
    14   1      1.2549999999999955      36.394999999999996      35.139999999999993
    15   1      1.2549999999999955      36.394999999999996      37.649999999999991
    16   1      1.2549999999999955      37.649999999999991      33.884999999999998
    17   1      1.2549999999999955      37.649999999999991      36.394999999999996
    18   1       2.509999999999998      31.374999999999993      31.374999999999993
    19   1      3.7649999999999935       30.11999999999999      31.374999999999993
    20   1      3.7649999999999935      31.374999999999993       30.11999999999999
    21   1       2.509999999999998      31.374999999999993      33.884999999999998
    22   1      3.7649999999999935       30.11999999999999      33.884999999999998
    23   1      3.7649999999999935      31.374999999999993      32.629999999999995
    24   1       2.509999999999998      31.374999999999993      36.394999999999996
    25   1      3.7649999999999935       30.11999999999999      36.394999999999996
    26   1      3.7649999999999935      31.374999999999993      35.139999999999993
    27   1       2.509999999999998      31.374999999999993      38.904999999999994
    28   1      3.7649999999999935       30.11999999999999      38.904999999999994
    29   1      3.7649999999999935      31.374999999999993      37.649999999999991
    30   1      3.7649999999999935      31.374999999999993      40.159999999999982
    31   1       2.509999999999998      33.884999999999998      31.374999999999993
    32   1      3.7649999999999935      32.629999999999995      31.374999999999993
    33   1      3.7649999999999935      33.884999999999998       30.11999999999999
    34   1       2.509999999999998      32.629999999999995      32.629999999999995
    35   1       2.509999999999998      33.884999999999998      33.884999999999998
    36   1      3.7649999999999935      32.629999999999995      33.884999999999998
    37   1      3.7649999999999935      33.884999999999998      32.629999999999995
    38   1       2.509999999999998      32.629999999999995      35.139999999999993
    39   1       2.509999999999998      33.884999999999998      36.394999999999996
    40   1      3.7649999999999935      32.629999999999995      36.394999999999996
    41   1      3.7649999999999935      33.884999999999998      35.139999999999993
    42   1       2.509999999999998      32.629999999999995      37.649999999999991
    43   1       2.509999999999998      33.884999999999998      38.904999999999994
    44   1      3.7649999999999935      32.629999999999995      38.904999999999994
    45   1      3.7649999999999935      33.884999999999998      37.649999999999991
    46   1      3.7649999999999935      33.884999999999998      40.159999999999982
    47   1       2.509999999999998      36.394999999999996      31.374999999999993
    48   1      3.7649999999999935      35.139999999999993      31.374999999999993
    49   1      3.7649999999999935      36.394999999999996       30.11999999999999
    50   1       2.509999999999998      35.139999999999993      32.629999999999995
    51   1       2.509999999999998      36.394999999999996      33.884999999999998
    52   1      3.7649999999999935      35.139999999999993      33.884999999999998
    53   1      3.7649999999999935      36.394999999999996      32.629999999999995
    54   1       2.509999999999998      35.139999999999993      35.139999999999993
    55   1       2.509999999999998      36.394999999999996      36.394999999999996
    56   1      3.7649999999999935      35.139999999999993      36.394999999999996
    57   1      3.7649999999999935      36.394999999999996      35.139999999999993
    58   1       2.509999999999998      35.139999999999993      37.649999999999991
    59   1       2.509999999999998      36.394999999999996      38.904999999999994
    60   1      3.7649999999999935      35.139999999999993      38.904999999999994
    61   1      3.7649999999999935      36.394999999999996      37.649999999999991
    62   1      3.7649999999999935      36.394999999999996      40.159999999999982
    63   1       2.509999999999998      38.904999999999994      31.374999999999993
    64   1      3.7649999999999935      37.649999999999991      31.374999999999993
    65   1      3.7649999999999935      38.904999999999994       30.11999999999999
    66   1       2.509999999999998      37.649999999999991      32.629999999999995
    67   1       2.509999999999998      38.904999999999994      33.884999999999998
    68   1      3.7649999999999935      37.649999999999991      33.884999999999998
    69   1      3.7649999999999935      38.904999999999994      32.629999999999995
    70   1       2.509999999999998      37.649999999999991      35.139999999999993
    71   1       2.509999999999998      38.904999999999994      36.394999999999996
    72   1      3.7649999999999935      37.649999999999991      36.394999999999996
    73   1      3.7649999999999935      38.904999999999994      35.139999999999993
    74   1       2.509999999999998      37.649999999999991      37.649999999999991
    75   1       2.509999999999998      38.904999999999994      38.904999999999994
    76   1      3.7649999999999935      37.649999999999991      38.904999999999994
    77   1      3.7649999999999935      38.904999999999994      37.649999999999991
    78   1      3.7649999999999935      38.904999999999994      40.159999999999982
    79   1      3.7649999999999935      40.159999999999982      31.374999999999993
    80   1      3.7649999999999935      40.159999999999982      33.884999999999998
    81   1      3.7649999999999935      40.159999999999982      36.394999999999996
    82   1      3.7649999999999935      40.159999999999982      38.904999999999994
    83   1       6.274999999999995      26.354999999999993      27.609999999999992
    84   1       6.274999999999995      26.354999999999993       30.11999999999999
    85   1       6.274999999999995      26.354999999999993      32.629999999999995
    86   1       6.274999999999995      26.354999999999993      35.139999999999993
    87   1       6.274999999999995      26.354999999999993      37.649999999999991
    88   1       6.274999999999995      26.354999999999993      40.159999999999982
    89   1       6.274999999999995      26.354999999999993       42.66999999999998
    90   1       6.274999999999995      27.609999999999992      26.354999999999993
    91   1       5.019999999999996      27.609999999999992      27.609999999999992
    92   1       5.019999999999996      28.864999999999988      28.864999999999988
    93   1       6.274999999999995      27.609999999999992      28.864999999999988
    94   1       6.274999999999995      28.864999999999988      27.609999999999992
    95   1       5.019999999999996      27.609999999999992       30.11999999999999
    96   1       5.019999999999996      28.864999999999988      31.374999999999993
    97   1       6.274999999999995      27.609999999999992      31.374999999999993
    98   1       6.274999999999995      28.864999999999988       30.11999999999999
    99   1       5.019999999999996      27.609999999999992      32.629999999999995
   100   1       5.019999999999996      28.864999999999988      33.884999999999998
   101   1       6.274999999999995      27.609999999999992      33.884999999999998
   102   1       6.274999999999995      28.864999999999988      32.629999999999995
   103   1       5.019999999999996      27.609999999999992      35.139999999999993
   104   1       5.019999999999996      28.864999999999988      36.394999999999996
   105   1       6.274999999999995      27.609999999999992      36.394999999999996
   106   1       6.274999999999995      28.864999999999988      35.139999999999993
   107   1       5.019999999999996      27.609999999999992      37.649999999999991
   108   1       5.019999999999996      28.864999999999988      38.904999999999994
   109   1       6.274999999999995      27.609999999999992      38.904999999999994
   110   1       6.274999999999995      28.864999999999988      37.649999999999991
   111   1       5.019999999999996      27.609999999999992      40.159999999999982
   112   1       5.019999999999996      28.864999999999988      41.414999999999992
   113   1       6.274999999999995      27.609999999999992      41.414999999999992
   114   1       6.274999999999995      28.864999999999988      40.159999999999982
   115   1       5.019999999999996      27.609999999999992       42.66999999999998
   116   1       6.274999999999995      27.609999999999992       43.92499999999999
   117   1       6.274999999999995      28.864999999999988       42.66999999999998
   118   1       6.274999999999995       30.11999999999999      26.354999999999993
   119   1       5.019999999999996       30.11999999999999      27.609999999999992
   120   1       5.019999999999996      31.374999999999993      28.864999999999988
   121   1       6.274999999999995       30.11999999999999      28.864999999999988
   122   1       6.274999999999995      31.374999999999993      27.609999999999992
   123   1       5.019999999999996       30.11999999999999       30.11999999999999
   124   1       5.019999999999996      31.374999999999993      31.374999999999993
   125   1       6.274999999999995       30.11999999999999      31.374999999999993
   126   1       6.274999999999995      31.374999999999993       30.11999999999999
   127   1       5.019999999999996       30.11999999999999      32.629999999999995
   128   1       5.019999999999996      31.374999999999993      33.884999999999998
   129   1       6.274999999999995       30.11999999999999      33.884999999999998
   130   1       6.274999999999995      31.374999999999993      32.629999999999995
   131   1       5.019999999999996       30.11999999999999      35.139999999999993
   132   1       5.019999999999996      31.374999999999993      36.394999999999996
   133   1       6.274999999999995       30.11999999999999      36.394999999999996
   134   1       6.274999999999995      31.374999999999993      35.139999999999993
   135   1       5.019999999999996       30.11999999999999      37.649999999999991
   136   1       5.019999999999996      31.374999999999993      38.904999999999994
   137   1       6.274999999999995       30.11999999999999      38.904999999999994
   138   1       6.274999999999995      31.374999999999993      37.649999999999991
   139   1       5.019999999999996       30.11999999999999      40.159999999999982
   140   1       5.019999999999996      31.374999999999993      41.414999999999992
   141   1       6.274999999999995       30.11999999999999      41.414999999999992
   142   1       6.274999999999995      31.374999999999993      40.159999999999982
   143   1       5.019999999999996       30.11999999999999       42.66999999999998
   144   1       6.274999999999995       30.11999999999999       43.92499999999999
   145   1       6.274999999999995      31.374999999999993       42.66999999999998
   146   1       6.274999999999995      32.629999999999995      26.354999999999993
   147   1       5.019999999999996      32.629999999999995      27.609999999999992
   148   1       5.019999999999996      33.884999999999998      28.864999999999988
   149   1       6.274999999999995      32.629999999999995      28.864999999999988
   150   1       6.274999999999995      33.884999999999998      27.609999999999992
   151   1       5.019999999999996      32.629999999999995       30.11999999999999
   152   1       5.019999999999996      33.884999999999998      31.374999999999993
   153   1       6.274999999999995      32.629999999999995      31.374999999999993
   154   1       6.274999999999995      33.884999999999998       30.11999999999999
   155   1       5.019999999999996      32.629999999999995      32.629999999999995
   156   1       5.019999999999996      33.884999999999998      33.884999999999998
   157   1       6.274999999999995      32.629999999999995      33.884999999999998
   158   1       6.274999999999995      33.884999999999998      32.629999999999995
   159   1       5.019999999999996      32.629999999999995      35.139999999999993
   160   1       5.019999999999996      33.884999999999998      36.394999999999996
   161   1       6.274999999999995      32.629999999999995      36.394999999999996
   162   1       6.274999999999995      33.884999999999998      35.139999999999993
   163   1       5.019999999999996      32.629999999999995      37.649999999999991
   164   1       5.019999999999996      33.884999999999998      38.904999999999994
   165   1       6.274999999999995      32.629999999999995      38.904999999999994
   166   1       6.274999999999995      33.884999999999998      37.649999999999991
   167   1       5.019999999999996      32.629999999999995      40.159999999999982
   168   1       5.019999999999996      33.884999999999998      41.414999999999992
   169   1       6.274999999999995      32.629999999999995      41.414999999999992
   170   1       6.274999999999995      33.884999999999998      40.159999999999982
   171   1       5.019999999999996      32.629999999999995       42.66999999999998
   172   1       6.274999999999995      32.629999999999995       43.92499999999999
   173   1       6.274999999999995      33.884999999999998       42.66999999999998
   174   1       6.274999999999995      35.139999999999993      26.354999999999993
   175   1       5.019999999999996      35.139999999999993      27.609999999999992
   176   1       5.019999999999996      36.394999999999996      28.864999999999988
   177   1       6.274999999999995      35.139999999999993      28.864999999999988
   178   1       6.274999999999995      36.394999999999996      27.609999999999992
   179   1       5.019999999999996      35.139999999999993       30.11999999999999
   180   1       5.019999999999996      36.394999999999996      31.374999999999993
   181   1       6.274999999999995      35.139999999999993      31.374999999999993
   182   1       6.274999999999995      36.394999999999996       30.11999999999999
   183   1       5.019999999999996      35.139999999999993      32.629999999999995
   184   1       5.019999999999996      36.394999999999996      33.884999999999998
   185   1       6.274999999999995      35.139999999999993      33.884999999999998
   186   1       6.274999999999995      36.394999999999996      32.629999999999995
   187   1       5.019999999999996      35.139999999999993      35.139999999999993
   188   1       5.019999999999996      36.394999999999996      36.394999999999996
   189   1       6.274999999999995      35.139999999999993      36.394999999999996
   190   1       6.274999999999995      36.394999999999996      35.139999999999993
   191   1       5.019999999999996      35.139999999999993      37.649999999999991
   192   1       5.019999999999996      36.394999999999996      38.904999999999994
   193   1       6.274999999999995      35.139999999999993      38.904999999999994
   194   1       6.274999999999995      36.394999999999996      37.649999999999991
   195   1       5.019999999999996      35.139999999999993      40.159999999999982
   196   1       5.019999999999996      36.394999999999996      41.414999999999992
   197   1       6.274999999999995      35.139999999999993      41.414999999999992
   198   1       6.274999999999995      36.394999999999996      40.159999999999982
   199   1       5.019999999999996      35.139999999999993       42.66999999999998
   200   1       6.274999999999995      35.139999999999993       43.92499999999999
   201   1       6.274999999999995      36.394999999999996       42.66999999999998
   202   1       6.274999999999995      37.649999999999991      26.354999999999993
   203   1       5.019999999999996      37.649999999999991      27.609999999999992
   204   1       5.019999999999996      38.904999999999994      28.864999999999988
   205   1       6.274999999999995      37.649999999999991      28.864999999999988
   206   1       6.274999999999995      38.904999999999994      27.609999999999992
   207   1       5.019999999999996      37.649999999999991       30.11999999999999
   208   1       5.019999999999996      38.904999999999994      31.374999999999993
   209   1       6.274999999999995      37.649999999999991      31.374999999999993
   210   1       6.274999999999995      38.904999999999994       30.11999999999999
   211   1       5.019999999999996      37.649999999999991      32.629999999999995
   212   1       5.019999999999996      38.904999999999994      33.884999999999998
   213   1       6.274999999999995      37.649999999999991      33.884999999999998
   214   1       6.274999999999995      38.904999999999994      32.629999999999995
   215   1       5.019999999999996      37.649999999999991      35.139999999999993
   216   1       5.019999999999996      38.904999999999994      36.394999999999996
   217   1       6.274999999999995      37.649999999999991      36.394999999999996
   218   1       6.274999999999995      38.904999999999994      35.139999999999993
   219   1       5.019999999999996      37.649999999999991      37.649999999999991
   220   1       5.019999999999996      38.904999999999994      38.904999999999994
   221   1       6.274999999999995      37.649999999999991      38.904999999999994
   222   1       6.274999999999995      38.904999999999994      37.649999999999991
   223   1       5.019999999999996      37.649999999999991      40.159999999999982
   224   1       5.019999999999996      38.904999999999994      41.414999999999992
   225   1       6.274999999999995      37.649999999999991      41.414999999999992
   226   1       6.274999999999995      38.904999999999994      40.159999999999982
   227   1       5.019999999999996      37.649999999999991       42.66999999999998
   228   1       6.274999999999995      37.649999999999991       43.92499999999999
   229   1       6.274999999999995      38.904999999999994       42.66999999999998
   230   1       6.274999999999995      40.159999999999982      26.354999999999993
   231   1       5.019999999999996      40.159999999999982      27.609999999999992
   232   1       5.019999999999996      41.414999999999992      28.864999999999988
   233   1       6.274999999999995      40.159999999999982      28.864999999999988
   234   1       6.274999999999995      41.414999999999992      27.609999999999992
   235   1       5.019999999999996      40.159999999999982       30.11999999999999
   236   1       5.019999999999996      41.414999999999992      31.374999999999993
   237   1       6.274999999999995      40.159999999999982      31.374999999999993
   238   1       6.274999999999995      41.414999999999992       30.11999999999999
   239   1       5.019999999999996      40.159999999999982      32.629999999999995
   240   1       5.019999999999996      41.414999999999992      33.884999999999998
   241   1       6.274999999999995      40.159999999999982      33.884999999999998
   242   1       6.274999999999995      41.414999999999992      32.629999999999995
   243   1       5.019999999999996      40.159999999999982      35.139999999999993
   244   1       5.019999999999996      41.414999999999992      36.394999999999996
   245   1       6.274999999999995      40.159999999999982      36.394999999999996
   246   1       6.274999999999995      41.414999999999992      35.139999999999993
   247   1       5.019999999999996      40.159999999999982      37.649999999999991
   248   1       5.019999999999996      41.414999999999992      38.904999999999994
   249   1       6.274999999999995      40.159999999999982      38.904999999999994
   250   1       6.274999999999995      41.414999999999992      37.649999999999991
   251   1       5.019999999999996      40.159999999999982      40.159999999999982
   252   1       5.019999999999996      41.414999999999992      41.414999999999992
   253   1       6.274999999999995      40.159999999999982      41.414999999999992
   254   1       6.274999999999995      41.414999999999992      40.159999999999982
   255   1       5.019999999999996      40.159999999999982       42.66999999999998
   256   1       6.274999999999995      40.159999999999982       43.92499999999999
   257   1       6.274999999999995      41.414999999999992       42.66999999999998
   258   1       6.274999999999995       42.66999999999998      26.354999999999993
   259   1       5.019999999999996       42.66999999999998      27.609999999999992
   260   1       6.274999999999995       42.66999999999998      28.864999999999988
   261   1       6.274999999999995       43.92499999999999      27.609999999999992
   262   1       5.019999999999996       42.66999999999998       30.11999999999999
   263   1       6.274999999999995       42.66999999999998      31.374999999999993
   264   1       6.274999999999995       43.92499999999999       30.11999999999999
   265   1       5.019999999999996       42.66999999999998      32.629999999999995
   266   1       6.274999999999995       42.66999999999998      33.884999999999998
   267   1       6.274999999999995       43.92499999999999      32.629999999999995
   268   1       5.019999999999996       42.66999999999998      35.139999999999993
   269   1       6.274999999999995       42.66999999999998      36.394999999999996
   270   1       6.274999999999995       43.92499999999999      35.139999999999993
   271   1       5.019999999999996       42.66999999999998      37.649999999999991
   272   1       6.274999999999995       42.66999999999998      38.904999999999994
   273   1       6.274999999999995       43.92499999999999      37.649999999999991
   274   1       5.019999999999996       42.66999999999998      40.159999999999982
   275   1       6.274999999999995       42.66999999999998      41.414999999999992
   276   1       6.274999999999995       43.92499999999999      40.159999999999982
   277   1       5.019999999999996       42.66999999999998       42.66999999999998
   278   1       6.274999999999995       42.66999999999998       43.92499999999999
   279   1       6.274999999999995       43.92499999999999       42.66999999999998
   280   1       8.784999999999993      23.844999999999992      25.099999999999994
   281   1       8.784999999999993      23.844999999999992      27.609999999999992
   282   1       8.784999999999993      23.844999999999992       30.11999999999999
   283   1       8.784999999999993      23.844999999999992      32.629999999999995
   284   1       8.784999999999993      23.844999999999992      35.139999999999993
   285   1       8.784999999999993      23.844999999999992      37.649999999999991
   286   1       8.784999999999993      23.844999999999992      40.159999999999982
   287   1       8.784999999999993      23.844999999999992       42.66999999999998
   288   1       8.784999999999993      23.844999999999992      45.179999999999993
   289   1       8.784999999999993      25.099999999999994      23.844999999999992
   290   1       7.529999999999994      25.099999999999994      25.099999999999994
   291   1       7.529999999999994      26.354999999999993      26.354999999999993
   292   1       8.784999999999993      25.099999999999994      26.354999999999993
   293   1       8.784999999999993      26.354999999999993      25.099999999999994
   294   1       7.529999999999994      25.099999999999994      27.609999999999992
   295   1       7.529999999999994      26.354999999999993      28.864999999999988
   296   1       8.784999999999993      25.099999999999994      28.864999999999988
   297   1       8.784999999999993      26.354999999999993      27.609999999999992
   298   1       7.529999999999994      25.099999999999994       30.11999999999999
   299   1       7.529999999999994      26.354999999999993      31.374999999999993
   300   1       8.784999999999993      25.099999999999994      31.374999999999993
   301   1       8.784999999999993      26.354999999999993       30.11999999999999
   302   1       7.529999999999994      25.099999999999994      32.629999999999995
   303   1       7.529999999999994      26.354999999999993      33.884999999999998
   304   1       8.784999999999993      25.099999999999994      33.884999999999998
   305   1       8.784999999999993      26.354999999999993      32.629999999999995
   306   1       7.529999999999994      25.099999999999994      35.139999999999993
   307   1       7.529999999999994      26.354999999999993      36.394999999999996
   308   1       8.784999999999993      25.099999999999994      36.394999999999996
   309   1       8.784999999999993      26.354999999999993      35.139999999999993
   310   1       7.529999999999994      25.099999999999994      37.649999999999991
   311   1       7.529999999999994      26.354999999999993      38.904999999999994
   312   1       8.784999999999993      25.099999999999994      38.904999999999994
   313   1       8.784999999999993      26.354999999999993      37.649999999999991
   314   1       7.529999999999994      25.099999999999994      40.159999999999982
   315   1       7.529999999999994      26.354999999999993      41.414999999999992
   316   1       8.784999999999993      25.099999999999994      41.414999999999992
   317   1       8.784999999999993      26.354999999999993      40.159999999999982
   318   1       7.529999999999994      25.099999999999994       42.66999999999998
   319   1       7.529999999999994      26.354999999999993       43.92499999999999
   320   1       8.784999999999993      25.099999999999994       43.92499999999999
   321   1       8.784999999999993      26.354999999999993       42.66999999999998
   322   1       7.529999999999994      25.099999999999994      45.179999999999993
   323   1       8.784999999999993      25.099999999999994      46.434999999999995
   324   1       8.784999999999993      26.354999999999993      45.179999999999993
   325   1       8.784999999999993      27.609999999999992      23.844999999999992
   326   1       7.529999999999994      27.609999999999992      25.099999999999994
   327   1       7.529999999999994      28.864999999999988      26.354999999999993
   328   1       8.784999999999993      27.609999999999992      26.354999999999993
   329   1       8.784999999999993      28.864999999999988      25.099999999999994
   330   1       7.529999999999994      27.609999999999992      27.609999999999992
   331   1       7.529999999999994      28.864999999999988      28.864999999999988
   332   1       8.784999999999993      27.609999999999992      28.864999999999988
   333   1       8.784999999999993      28.864999999999988      27.609999999999992
   334   1       7.529999999999994      27.609999999999992       30.11999999999999
   335   1       7.529999999999994      28.864999999999988      31.374999999999993
   336   1       8.784999999999993      27.609999999999992      31.374999999999993
   337   1       8.784999999999993      28.864999999999988       30.11999999999999
   338   1       7.529999999999994      27.609999999999992      32.629999999999995
   339   1       7.529999999999994      28.864999999999988      33.884999999999998
   340   1       8.784999999999993      27.609999999999992      33.884999999999998
   341   1       8.784999999999993      28.864999999999988      32.629999999999995
   342   1       7.529999999999994      27.609999999999992      35.139999999999993
   343   1       7.529999999999994      28.864999999999988      36.394999999999996
   344   1       8.784999999999993      27.609999999999992      36.394999999999996
   345   1       8.784999999999993      28.864999999999988      35.139999999999993
   346   1       7.529999999999994      27.609999999999992      37.649999999999991
   347   1       7.529999999999994      28.864999999999988      38.904999999999994
   348   1       8.784999999999993      27.609999999999992      38.904999999999994
   349   1       8.784999999999993      28.864999999999988      37.649999999999991
   350   1       7.529999999999994      27.609999999999992      40.159999999999982
   351   1       7.529999999999994      28.864999999999988      41.414999999999992
   352   1       8.784999999999993      27.609999999999992      41.414999999999992
   353   1       8.784999999999993      28.864999999999988      40.159999999999982
   354   1       7.529999999999994      27.609999999999992       42.66999999999998
   355   1       7.529999999999994      28.864999999999988       43.92499999999999
   356   1       8.784999999999993      27.609999999999992       43.92499999999999
   357   1       8.784999999999993      28.864999999999988       42.66999999999998
   358   1       7.529999999999994      27.609999999999992      45.179999999999993