model_files/CuFeNi/CuFeNi_30000/CuFeNi_531/CuFeNi_531_fcc_29859_temp.data (written by ASE) 

29859 	 atoms 
3  atom types
0.0                     102  xlo xhi
0.0                     102  ylo yhi
0.0                     102  zlo zhi


Atoms 

     1   1  7.1054273576010019e-15      49.399999999999999      51.299999999999997
     2   1  7.1054273576010019e-15      51.299999999999997      49.399999999999999
     3   1  7.1054273576010019e-15      51.299999999999997      53.199999999999989
     4   1  7.1054273576010019e-15      53.199999999999989      51.299999999999997
     5   1      3.8000000000000114      43.700000000000003      49.399999999999999
     6   1      3.8000000000000114      45.600000000000001                    47.5
     7   1      3.8000000000000114      43.700000000000003      53.199999999999989
     8   1      3.8000000000000114      45.600000000000001      51.299999999999997
     9   1      3.8000000000000114      45.600000000000001      55.099999999999994
    10   1      3.8000000000000114                    47.5      45.600000000000001
    11   1      3.8000000000000114      49.399999999999999      43.700000000000003
    12   1      1.9000000000000057                    47.5                    47.5
    13   1      1.9000000000000057      49.399999999999999      49.399999999999999
    14   1      3.8000000000000114                    47.5      49.399999999999999
    15   1      3.8000000000000114      49.399999999999999                    47.5
    16   1      1.9000000000000057                    47.5      51.299999999999997
    17   1      1.9000000000000057      49.399999999999999      53.199999999999989
    18   1      3.8000000000000114                    47.5      53.199999999999989
    19   1      3.8000000000000114      49.399999999999999      51.299999999999997
    20   1      1.9000000000000057                    47.5      55.099999999999994
    21   1      3.8000000000000114                    47.5                      57
    22   1      3.8000000000000114      49.399999999999999      55.099999999999994
    23   1      3.8000000000000114      49.399999999999999      58.899999999999991
    24   1      3.8000000000000114      51.299999999999997      45.600000000000001
    25   1      3.8000000000000114      53.199999999999989      43.700000000000003
    26   1      1.9000000000000057      51.299999999999997                    47.5
    27   1      1.9000000000000057      53.199999999999989      49.399999999999999
    28   1      3.8000000000000114      51.299999999999997      49.399999999999999
    29   1      3.8000000000000114      53.199999999999989                    47.5
    30   1      1.9000000000000057      51.299999999999997      51.299999999999997
    31   1      1.9000000000000057      53.199999999999989      53.199999999999989
    32   1      3.8000000000000114      51.299999999999997      53.199999999999989
    33   1      3.8000000000000114      53.199999999999989      51.299999999999997
    34   1      1.9000000000000057      51.299999999999997      55.099999999999994
    35   1      3.8000000000000114      51.299999999999997                      57
    36   1      3.8000000000000114      53.199999999999989      55.099999999999994
    37   1      3.8000000000000114      53.199999999999989      58.899999999999991
    38   1      3.8000000000000114      55.099999999999994      45.600000000000001
    39   1      1.9000000000000057      55.099999999999994                    47.5
    40   1      3.8000000000000114      55.099999999999994      49.399999999999999
    41   1      3.8000000000000114                      57                    47.5
    42   1      1.9000000000000057      55.099999999999994      51.299999999999997
    43   1      3.8000000000000114      55.099999999999994      53.199999999999989
    44   1      3.8000000000000114                      57      51.299999999999997
    45   1      1.9000000000000057      55.099999999999994      55.099999999999994
    46   1      3.8000000000000114      55.099999999999994                      57
    47   1      3.8000000000000114                      57      55.099999999999994
    48   1      3.8000000000000114      58.899999999999991      49.399999999999999
    49   1      3.8000000000000114      58.899999999999991      53.199999999999989
    50   1      7.6000000000000085                      38                    47.5
    51   1      7.6000000000000085                      38      51.299999999999997
    52   1      7.6000000000000085                      38      55.099999999999994
    53   1      7.6000000000000085      39.899999999999999      41.799999999999997
    54   1      7.6000000000000085      41.799999999999997      39.899999999999999
    55   1      5.7000000000000099      41.799999999999997      45.600000000000001
    56   1      7.6000000000000085      39.899999999999999      45.600000000000001
    57   1      7.6000000000000085      41.799999999999997      43.700000000000003
    58   1      5.7000000000000099      41.799999999999997      49.399999999999999
    59   1      7.6000000000000085      39.899999999999999      49.399999999999999
    60   1      7.6000000000000085      41.799999999999997                    47.5
    61   1      5.7000000000000099      39.899999999999999      51.299999999999997
    62   1      5.7000000000000099      41.799999999999997      53.199999999999989
    63   1      7.6000000000000085      39.899999999999999      53.199999999999989
    64   1      7.6000000000000085      41.799999999999997      51.299999999999997
    65   1      5.7000000000000099      41.799999999999997                      57
    66   1      7.6000000000000085      39.899999999999999                      57
    67   1      7.6000000000000085      41.799999999999997      55.099999999999994
    68   1      7.6000000000000085      39.899999999999999      60.799999999999997
    69   1      7.6000000000000085      41.799999999999997      58.899999999999991
    70   1      7.6000000000000085      41.799999999999997      62.700000000000003
    71   1      5.7000000000000099      45.600000000000001      41.799999999999997
    72   1      7.6000000000000085      43.700000000000003      41.799999999999997
    73   1      7.6000000000000085      45.600000000000001      39.899999999999999
    74   1      5.7000000000000099      43.700000000000003      43.700000000000003
    75   1      5.7000000000000099      45.600000000000001      45.600000000000001
    76   1      7.6000000000000085      43.700000000000003      45.600000000000001
    77   1      7.6000000000000085      45.600000000000001      43.700000000000003
    78   1      5.7000000000000099      43.700000000000003                    47.5
    79   1      5.7000000000000099      45.600000000000001      49.399999999999999
    80   1      7.6000000000000085      43.700000000000003      49.399999999999999
    81   1      7.6000000000000085      45.600000000000001                    47.5
    82   1      5.7000000000000099      43.700000000000003      51.299999999999997
    83   1      5.7000000000000099      45.600000000000001      53.199999999999989
    84   1      7.6000000000000085      43.700000000000003      53.199999999999989
    85   1      7.6000000000000085      45.600000000000001      51.299999999999997
    86   1      5.7000000000000099      43.700000000000003      55.099999999999994
    87   1      5.7000000000000099      45.600000000000001                      57
    88   1      7.6000000000000085      43.700000000000003                      57
    89   1      7.6000000000000085      45.600000000000001      55.099999999999994
    90   1      5.7000000000000099      43.700000000000003      58.899999999999991
    91   1      5.7000000000000099      45.600000000000001      60.799999999999997
    92   1      7.6000000000000085      43.700000000000003      60.799999999999997
    93   1      7.6000000000000085      45.600000000000001      58.899999999999991
    94   1      7.6000000000000085      45.600000000000001      62.700000000000003
    95   1      7.6000000000000085                    47.5                      38
    96   1      5.7000000000000099      49.399999999999999      41.799999999999997
    97   1      7.6000000000000085                    47.5      41.799999999999997
    98   1      7.6000000000000085      49.399999999999999      39.899999999999999
    99   1      5.7000000000000099                    47.5      43.700000000000003
   100   1      5.7000000000000099      49.399999999999999      45.600000000000001
   101   1      7.6000000000000085                    47.5      45.600000000000001
   102   1      7.6000000000000085      49.399999999999999      43.700000000000003
   103   1      5.7000000000000099                    47.5                    47.5
   104   1      5.7000000000000099      49.399999999999999      49.399999999999999
   105   1      7.6000000000000085                    47.5      49.399999999999999
   106   1      7.6000000000000085      49.399999999999999                    47.5
   107   1      5.7000000000000099                    47.5      51.299999999999997
   108   1      5.7000000000000099      49.399999999999999      53.199999999999989
   109   1      7.6000000000000085                    47.5      53.199999999999989
   110   1      7.6000000000000085      49.399999999999999      51.299999999999997
   111   1      5.7000000000000099                    47.5      55.099999999999994
   112   1      5.7000000000000099      49.399999999999999                      57
   113   1      7.6000000000000085                    47.5                      57
   114   1      7.6000000000000085      49.399999999999999      55.099999999999994
   115   1      5.7000000000000099                    47.5      58.899999999999991
   116   1      5.7000000000000099      49.399999999999999      60.799999999999997
   117   1      7.6000000000000085                    47.5      60.799999999999997
   118   1      7.6000000000000085      49.399999999999999      58.899999999999991
   119   1      7.6000000000000085                    47.5      64.600000000000009
   120   1      7.6000000000000085      49.399999999999999      62.700000000000003
   121   1      7.6000000000000085      51.299999999999997                      38
   122   1      5.7000000000000099      51.299999999999997      39.899999999999999
   123   1      5.7000000000000099      53.199999999999989      41.799999999999997
   124   1      7.6000000000000085      51.299999999999997      41.799999999999997
   125   1      7.6000000000000085      53.199999999999989      39.899999999999999
   126   1      5.7000000000000099      51.299999999999997      43.700000000000003
   127   1      5.7000000000000099      53.199999999999989      45.600000000000001
   128   1      7.6000000000000085      51.299999999999997      45.600000000000001
   129   1      7.6000000000000085      53.199999999999989      43.700000000000003
   130   1      5.7000000000000099      51.299999999999997                    47.5
   131   1      5.7000000000000099      53.199999999999989      49.399999999999999
   132   1      7.6000000000000085      51.299999999999997      49.399999999999999
   133   1      7.6000000000000085      53.199999999999989                    47.5
   134   1      5.7000000000000099      51.299999999999997      51.299999999999997
   135   1      5.7000000000000099      53.199999999999989      53.199999999999989
   136   1      7.6000000000000085      51.299999999999997      53.199999999999989
   137   1      7.6000000000000085      53.199999999999989      51.299999999999997
   138   1      5.7000000000000099      51.299999999999997      55.099999999999994
   139   1      5.7000000000000099      53.199999999999989                      57
   140   1      7.6000000000000085      51.299999999999997                      57
   141   1      7.6000000000000085      53.199999999999989      55.099999999999994
   142   1      5.7000000000000099      51.299999999999997      58.899999999999991
   143   1      5.7000000000000099      53.199999999999989      60.799999999999997
   144   1      7.6000000000000085      51.299999999999997      60.799999999999997
   145   1      7.6000000000000085      53.199999999999989      58.899999999999991
   146   1      5.7000000000000099      51.299999999999997      62.700000000000003
   147   1      7.6000000000000085      51.299999999999997      64.600000000000009
   148   1      7.6000000000000085      53.199999999999989      62.700000000000003
   149   1      7.6000000000000085      55.099999999999994                      38
   150   1      5.7000000000000099                      57      41.799999999999997
   151   1      7.6000000000000085      55.099999999999994      41.799999999999997
   152   1      7.6000000000000085                      57      39.899999999999999
   153   1      5.7000000000000099      55.099999999999994      43.700000000000003
   154   1      5.7000000000000099                      57      45.600000000000001
   155   1      7.6000000000000085      55.099999999999994      45.600000000000001
   156   1      7.6000000000000085                      57      43.700000000000003
   157   1      5.7000000000000099      55.099999999999994                    47.5
   158   1      5.7000000000000099                      57      49.399999999999999
   159   1      7.6000000000000085      55.099999999999994      49.399999999999999
   160   1      7.6000000000000085                      57                    47.5
   161   1      5.7000000000000099      55.099999999999994      51.299999999999997
   162   1      5.7000000000000099                      57      53.199999999999989
   163   1      7.6000000000000085      55.099999999999994      53.199999999999989
   164   1      7.6000000000000085                      57      51.299999999999997
   165   1      5.7000000000000099      55.099999999999994      55.099999999999994
   166   1      5.7000000000000099                      57                      57
   167   1      7.6000000000000085      55.099999999999994                      57
   168   1      7.6000000000000085                      57      55.099999999999994
   169   1      5.7000000000000099      55.099999999999994      58.899999999999991
   170   1      5.7000000000000099                      57      60.799999999999997
   171   1      7.6000000000000085      55.099999999999994      60.799999999999997
   172   1      7.6000000000000085                      57      58.899999999999991
   173   1      7.6000000000000085      55.099999999999994      64.600000000000009
   174   1      7.6000000000000085                      57      62.700000000000003
   175   1      7.6000000000000085      58.899999999999991      41.799999999999997
   176   1      7.6000000000000085      60.799999999999997      39.899999999999999
   177   1      5.7000000000000099      58.899999999999991      43.700000000000003
   178   1      5.7000000000000099      60.799999999999997      45.600000000000001
   179   1      7.6000000000000085      58.899999999999991      45.600000000000001
   180   1      7.6000000000000085      60.799999999999997      43.700000000000003
   181   1      5.7000000000000099      58.899999999999991                    47.5
   182   1      5.7000000000000099      60.799999999999997      49.399999999999999
   183   1      7.6000000000000085      58.899999999999991      49.399999999999999
   184   1      7.6000000000000085      60.799999999999997                    47.5
   185   1      5.7000000000000099      58.899999999999991      51.299999999999997
   186   1      5.7000000000000099      60.799999999999997      53.199999999999989
   187   1      7.6000000000000085      58.899999999999991      53.199999999999989
   188   1      7.6000000000000085      60.799999999999997      51.299999999999997
   189   1      5.7000000000000099      58.899999999999991      55.099999999999994
   190   1      5.7000000000000099      60.799999999999997                      57
   191   1      7.6000000000000085      58.899999999999991                      57
   192   1      7.6000000000000085      60.799999999999997      55.099999999999994
   193   1      5.7000000000000099      58.899999999999991      58.899999999999991
   194   1      7.6000000000000085      58.899999999999991      60.799999999999997
   195   1      7.6000000000000085      60.799999999999997      58.899999999999991
   196   1      7.6000000000000085      60.799999999999997      62.700000000000003
   197   1      7.6000000000000085      62.700000000000003      41.799999999999997
   198   1      7.6000000000000085      62.700000000000003      45.600000000000001
   199   1      7.6000000000000085      62.700000000000003      49.399999999999999
   200   1      7.6000000000000085      64.600000000000009                    47.5
   201   1      5.7000000000000099      62.700000000000003      51.299999999999997
   202   1      7.6000000000000085      62.700000000000003      53.199999999999989
   203   1      7.6000000000000085      64.600000000000009      51.299999999999997
   204   1      7.6000000000000085      62.700000000000003                      57
   205   1      7.6000000000000085      64.600000000000009      55.099999999999994
   206   1      7.6000000000000085      62.700000000000003      60.799999999999997
   207   1      11.400000000000006      30.400000000000006      51.299999999999997
   208   1      11.400000000000006      34.200000000000003      39.899999999999999
   209   1      11.400000000000006      32.300000000000004      45.600000000000001
   210   1      11.400000000000006      34.200000000000003      43.700000000000003
   211   1      9.5000000000000071      34.200000000000003      49.399999999999999
   212   1      11.400000000000006      32.300000000000004      49.399999999999999
   213   1      11.400000000000006      34.200000000000003                    47.5
   214   1      9.5000000000000071      34.200000000000003      53.199999999999989
   215   1      11.400000000000006      32.300000000000004      53.199999999999989
   216   1      11.400000000000006      34.200000000000003      51.299999999999997
   217   1      11.400000000000006      32.300000000000004                      57
   218   1      11.400000000000006      34.200000000000003      55.099999999999994
   219   1      11.400000000000006      34.200000000000003      58.899999999999991
   220   1      11.400000000000006      34.200000000000003      62.700000000000003
   221   1      9.5000000000000071                      38                      38
   222   1      11.400000000000006      36.100000000000001                      38
   223   1      11.400000000000006                      38      36.100000000000001
   224   1      9.5000000000000071                      38      41.799999999999997
   225   1      11.400000000000006      36.100000000000001      41.799999999999997
   226   1      11.400000000000006                      38      39.899999999999999
   227   1      9.5000000000000071      36.100000000000001      43.700000000000003
   228   1      9.5000000000000071                      38      45.600000000000001
   229   1      11.400000000000006      36.100000000000001      45.600000000000001
   230   1      11.400000000000006                      38      43.700000000000003
   231   1      9.5000000000000071      36.100000000000001                    47.5
   232   1      9.5000000000000071                      38      49.399999999999999
   233   1      11.400000000000006      36.100000000000001      49.399999999999999
   234   1      11.400000000000006                      38                    47.5
   235   1      9.5000000000000071      36.100000000000001      51.299999999999997
   236   1      9.5000000000000071                      38      53.199999999999989
   237   1      11.400000000000006      36.100000000000001      53.199999999999989
   238   1      11.400000000000006                      38      51.299999999999997
   239   1      9.5000000000000071      36.100000000000001      55.099999999999994
   240   1      9.5000000000000071                      38                      57
   241   1      11.400000000000006      36.100000000000001                      57
   242   1      11.400000000000006                      38      55.099999999999994
   243   1      9.5000000000000071      36.100000000000001      58.899999999999991
   244   1      9.5000000000000071                      38      60.799999999999997
   245   1      11.400000000000006      36.100000000000001      60.799999999999997
   246   1      11.400000000000006                      38      58.899999999999991
   247   1      9.5000000000000071                      38      64.600000000000009
   248   1      11.400000000000006      36.100000000000001      64.600000000000009
   249   1      11.400000000000006                      38      62.700000000000003
   250   1      11.400000000000006                      38                    66.5
   251   1      11.400000000000006      39.899999999999999      34.200000000000003
   252   1      9.5000000000000071      41.799999999999997                      38
   253   1      11.400000000000006      39.899999999999999                      38
   254   1      11.400000000000006      41.799999999999997      36.100000000000001
   255   1      9.5000000000000071      39.899999999999999      39.899999999999999
   256   1      9.5000000000000071      41.799999999999997      41.799999999999997
   257   1      11.400000000000006      39.899999999999999      41.799999999999997
   258   1      11.400000000000006      41.799999999999997      39.899999999999999
   259   1      9.5000000000000071      39.899999999999999      43.700000000000003
   260   1      9.5000000000000071      41.799999999999997      45.600000000000001
   261   1      11.400000000000006      39.899999999999999      45.600000000000001
   262   1      11.400000000000006      41.799999999999997      43.700000000000003
   263   1      9.5000000000000071      39.899999999999999                    47.5
   264   1      9.5000000000000071      41.799999999999997      49.399999999999999
   265   1      11.400000000000006      39.899999999999999      49.399999999999999
   266   1      11.400000000000006      41.799999999999997                    47.5
   267   1      9.5000000000000071      39.899999999999999      51.299999999999997
   268   1      9.5000000000000071      41.799999999999997      53.199999999999989
   269   1      11.400000000000006      39.899999999999999      53.199999999999989
   270   1      11.400000000000006      41.799999999999997      51.299999999999997
   271   1      9.5000000000000071      39.899999999999999      55.099999999999994
   272   1      9.5000000000000071      41.799999999999997                      57
   273   1      11.400000000000006      39.899999999999999                      57
   274   1      11.400000000000006      41.799999999999997      55.099999999999994
   275   1      9.5000000000000071      39.899999999999999      58.899999999999991
   276   1      9.5000000000000071      41.799999999999997      60.799999999999997
   277   1      11.400000000000006      39.899999999999999      60.799999999999997
   278   1      11.400000000000006      41.799999999999997      58.899999999999991
   279   1      9.5000000000000071      39.899999999999999      62.700000000000003
   280   1      9.5000000000000071      41.799999999999997      64.600000000000009
   281   1      11.400000000000006      39.899999999999999      64.600000000000009
   282   1      11.400000000000006      41.799999999999997      62.700000000000003
   283   1      11.400000000000006      39.899999999999999      68.400000000000006
   284   1      11.400000000000006      41.799999999999997                    66.5
   285   1      11.400000000000006      43.700000000000003      34.200000000000003
   286   1      11.400000000000006      45.600000000000001      32.300000000000004
   287   1      9.5000000000000071      43.700000000000003      36.100000000000001
   288   1      9.5000000000000071      45.600000000000001                      38
   289   1      11.400000000000006      43.700000000000003                      38
   290   1      11.400000000000006      45.600000000000001      36.100000000000001
   291   1      9.5000000000000071      43.700000000000003      39.899999999999999
   292   1      9.5000000000000071      45.600000000000001      41.799999999999997
   293   1      11.400000000000006      43.700000000000003      41.799999999999997
   294   1      11.400000000000006      45.600000000000001      39.899999999999999
   295   1      9.5000000000000071      43.700000000000003      43.700000000000003
   296   1      9.5000000000000071      45.600000000000001      45.600000000000001
   297   1      11.400000000000006      43.700000000000003      45.600000000000001
   298   1      11.400000000000006      45.600000000000001      43.700000000000003
   299   1      9.5000000000000071      43.700000000000003                    47.5
   300   1      9.5000000000000071      45.600000000000001      49.399999999999999
   301   1      11.400000000000006      43.700000000000003      49.399999999999999
   302   1      11.400000000000006      45.600000000000001                    47.5
   303   1      9.5000000000000071      43.700000000000003      51.299999999999997
   304   1      9.5000000000000071      45.600000000000001      53.199999999999989
   305   1      11.400000000000006      43.700000000000003      53.199999999999989
   306   1      11.400000000000006      45.600000000000001      51.299999999999997
   307   1      9.5000000000000071      43.700000000000003      55.099999999999994
   308   1      9.5000000000000071      45.600000000000001                      57
   309   1      11.400000000000006      43.700000000000003                      57
   310   1      11.400000000000006      45.600000000000001      55.099999999999994
   311   1      9.5000000000000071      43.700000000000003      58.899999999999991
   312   1      9.5000000000000071      45.600000000000001      60.799999999999997
   313   1      11.400000000000006      43.700000000000003      60.799999999999997
   314   1      11.400000000000006      45.600000000000001      58.899999999999991
   315   1      9.5000000000000071      43.700000000000003      62.700000000000003
   316   1      9.5000000000000071      45.600000000000001      64.600000000000009
   317   1      11.400000000000006      43.700000000000003      64.600000000000009
   318   1      11.400000000000006      45.600000000000001      62.700000000000003
   319   1      9.5000000000000071      43.700000000000003                    66.5
   320   1      11.400000000000006      43.700000000000003      68.400000000000006
   321   1      11.400000000000006      45.600000000000001                    66.5
   322   1      11.400000000000006      45.600000000000001      70.299999999999997
   323   1      9.5000000000000071      49.399999999999999      34.200000000000003
   324   1      11.400000000000006                    47.5      34.200000000000003
   325   1      11.400000000000006      49.399999999999999      32.300000000000004
   326   1      9.5000000000000071                    47.5      36.100000000000001
   327   1      9.5000000000000071      49.399999999999999                      38
   328   1      11.400000000000006                    47.5                      38
   329   1      11.400000000000006      49.399999999999999      36.100000000000001
   330   1      9.5000000000000071                    47.5      39.899999999999999
   331   1      9.5000000000000071      49.399999999999999      41.799999999999997
   332   1      11.400000000000006                    47.5      41.799999999999997
   333   1      11.400000000000006      49.399999999999999      39.899999999999999
   334   1      9.5000000000000071                    47.5      43.700000000000003
   335   1      9.5000000000000071      49.399999999999999      45.600000000000001
   336   1      11.400000000000006                    47.5      45.600000000000001
   337   1      11.400000000000006      49.399999999999999      43.700000000000003
   338   1      9.5000000000000071                    47.5                    47.5
   339   1      9.5000000000000071      49.399999999999999      49.399999999999999
   340   1      11.400000000000006                    47.5      49.399999999999999
   341   1      11.400000000000006      49.399999999999999                    47.5
   342   1      9.5000000000000071                    47.5      51.299999999999997
   343   1      9.5000000000000071      49.399999999999999      53.199999999999989
   344   1      11.400000000000006                    47.5      53.199999999999989
   345   1      11.400000000000006      49.399999999999999      51.299999999999997
   346   1      9.5000000000000071                    47.5      55.099999999999994
   347   1      9.5000000000000071      49.399999999999999                      57
   348   1      11.400000000000006                    47.5                      57
   349   1      11.400000000000006      49.399999999999999      55.099999999999994
   350   1      9.5000000000000071                    47.5      58.899999999999991
   351   1      9.5000000000000071      49.399999999999999      60.799999999999997
   352   1      11.400000000000006                    47.5      60.799999999999997
   353   1      11.400000000000006      49.399999999999999      58.899999999999991
   354   1      9.5000000000000071                    47.5      62.700000000000003
   355   1      9.5000000000000071      49.399999999999999      64.600000000000009
   356   1      11.400000000000006                    47.5      64.600000000000009
   357   1      11.400000000000006      49.399999999999999      62.700000000000003
   358   1      9.5000000000000071                    47.5                    66.5