LAMMPS data file via write_data, version 30 Nov 2020, timestep = 0

29859 atoms
3 atom types

0 102 xlo xhi
0 102 ylo yhi
0 102 zlo zhi

Masses

1 63.546
2 55.845
3 58.6934

Atoms # atomic

5 2 3.8000000000000114 43.7 49.4 0 0 0
6 2 3.8000000000000114 45.6 47.5 0 0 0
10 3 3.8000000000000114 47.5 45.6 0 0 0
11 2 3.8000000000000114 49.4 43.7 0 0 0
12 1 1.9000000000000057 47.5 47.5 0 0 0
13 2 1.9000000000000057 49.4 49.4 0 0 0
14 1 3.8000000000000114 47.5 49.4 0 0 0
15 2 3.8000000000000114 49.4 47.5 0 0 0
50 1 7.6000000000000085 38 47.5 0 0 0
53 1 7.6000000000000085 39.9 41.8 0 0 0
54 1 7.6000000000000085 41.8 39.9 0 0 0
55 1 5.70000000000001 41.8 45.6 0 0 0
56 1 7.6000000000000085 39.9 45.6 0 0 0
57 3 7.6000000000000085 41.8 43.7 0 0 0
58 1 5.70000000000001 41.8 49.4 0 0 0
59 3 7.6000000000000085 39.9 49.4 0 0 0
60 1 7.6000000000000085 41.8 47.5 0 0 0
71 3 5.70000000000001 45.6 41.8 0 0 0
72 3 7.6000000000000085 43.7 41.8 0 0 0
73 3 7.6000000000000085 45.6 39.9 0 0 0
74 1 5.70000000000001 43.7 43.7 0 0 0
75 1 5.70000000000001 45.6 45.6 0 0 0
76 3 7.6000000000000085 43.7 45.6 0 0 0
77 1 7.6000000000000085 45.6 43.7 0 0 0
78 1 5.70000000000001 43.7 47.5 0 0 0
79 1 5.70000000000001 45.6 49.4 0 0 0
80 1 7.6000000000000085 43.7 49.4 0 0 0
81 1 7.6000000000000085 45.6 47.5 0 0 0
95 2 7.6000000000000085 47.5 38 0 0 0
96 3 5.70000000000001 49.4 41.8 0 0 0
97 1 7.6000000000000085 47.5 41.8 0 0 0
98 3 7.6000000000000085 49.4 39.9 0 0 0
99 3 5.70000000000001 47.5 43.7 0 0 0
100 3 5.70000000000001 49.4 45.6 0 0 0
101 2 7.6000000000000085 47.5 45.6 0 0 0
102 1 7.6000000000000085 49.4 43.7 0 0 0
103 2 5.70000000000001 47.5 47.5 0 0 0
104 1 5.70000000000001 49.4 49.4 0 0 0
105 1 7.6000000000000085 47.5 49.4 0 0 0
106 3 7.6000000000000085 49.4 47.5 0 0 0
208 3 11.400000000000006 34.2 39.9 0 0 0
209 1 11.400000000000006 32.300000000000004 45.6 0 0 0
210 2 11.400000000000006 34.2 43.7 0 0 0
211 1 9.500000000000007 34.2 49.4 0 0 0
212 2 11.400000000000006 32.300000000000004 49.4 0 0 0
213 3 11.400000000000006 34.2 47.5 0 0 0
221 3 9.500000000000007 38 38 0 0 0
222 1 11.400000000000006 36.1 38 0 0 0
223 3 11.400000000000006 38 36.1 0 0 0
224 1 9.500000000000007 38 41.8 0 0 0
225 1 11.400000000000006 36.1 41.8 0 0 0
226 1 11.400000000000006 38 39.9 0 0 0
227 3 9.500000000000007 36.1 43.7 0 0 0
228 2 9.500000000000007 38 45.6 0 0 0
229 1 11.400000000000006 36.1 45.6 0 0 0
230 1 11.400000000000006 38 43.7 0 0 0
231 1 9.500000000000007 36.1 47.5 0 0 0
232 3 9.500000000000007 38 49.4 0 0 0
233 1 11.400000000000006 36.1 49.4 0 0 0
234 3 11.400000000000006 38 47.5 0 0 0
251 1 11.400000000000006 39.9 34.2 0 0 0
252 1 9.500000000000007 41.8 38 0 0 0
253 1 11.400000000000006 39.9 38 0 0 0
254 1 11.400000000000006 41.8 36.1 0 0 0
255 2 9.500000000000007 39.9 39.9 0 0 0
256 1 9.500000000000007 41.8 41.8 0 0 0
257 1 11.400000000000006 39.9 41.8 0 0 0
258 2 11.400000000000006 41.8 39.9 0 0 0
259 1 9.500000000000007 39.9 43.7 0 0 0
260 3 9.500000000000007 41.8 45.6 0 0 0
261 3 11.400000000000006 39.9 45.6 0 0 0
262 3 11.400000000000006 41.8 43.7 0 0 0
263 2 9.500000000000007 39.9 47.5 0 0 0
264 1 9.500000000000007 41.8 49.4 0 0 0
265 2 11.400000000000006 39.9 49.4 0 0 0
266 1 11.400000000000006 41.8 47.5 0 0 0
285 3 11.400000000000006 43.7 34.2 0 0 0
286 1 11.400000000000006 45.6 32.300000000000004 0 0 0
287 3 9.500000000000007 43.7 36.1 0 0 0
288 2 9.500000000000007 45.6 38 0 0 0
289 3 11.400000000000006 43.7 38 0 0 0
290 1 11.400000000000006 45.6 36.1 0 0 0
291 1 9.500000000000007 43.7 39.9 0 0 0
292 1 9.500000000000007 45.6 41.8 0 0 0
293 1 11.400000000000006 43.7 41.8 0 0 0
294 2 11.400000000000006 45.6 39.9 0 0 0
295 2 9.500000000000007 43.7 43.7 0 0 0
296 2 9.500000000000007 45.6 45.6 0 0 0
297 1 11.400000000000006 43.7 45.6 0 0 0
298 1 11.400000000000006 45.6 43.7 0 0 0
299 1 9.500000000000007 43.7 47.5 0 0 0
300 1 9.500000000000007 45.6 49.4 0 0 0
301 2 11.400000000000006 43.7 49.4 0 0 0
302 2 11.400000000000006 45.6 47.5 0 0 0
323 1 9.500000000000007 49.4 34.2 0 0 0
324 3 11.400000000000006 47.5 34.2 0 0 0
325 3 11.400000000000006 49.4 32.300000000000004 0 0 0
326 1 9.500000000000007 47.5 36.1 0 0 0
327 1 9.500000000000007 49.4 38 0 0 0
328 2 11.400000000000006 47.5 38 0 0 0
329 1 11.400000000000006 49.4 36.1 0 0 0
330 1 9.500000000000007 47.5 39.9 0 0 0
331 1 9.500000000000007 49.4 41.8 0 0 0
332 1 11.400000000000006 47.5 41.8 0 0 0
333 1 11.400000000000006 49.4 39.9 0 0 0
334 1 9.500000000000007 47.5 43.7 0 0 0
335 1 9.500000000000007 49.4 45.6 0 0 0
336 1 11.400000000000006 47.5 45.6 0 0 0
337 1 11.400000000000006 49.4 43.7 0 0 0
338 1 9.500000000000007 47.5 47.5 0 0 0
339 1 9.500000000000007 49.4 49.4 0 0 0
340 1 11.400000000000006 47.5 49.4 0 0 0
341 1 11.400000000000006 49.4 47.5 0 0 0
540 3 15.200000000000003 26.6 43.7 0 0 0
541 1 15.200000000000003 24.700000000000003 49.4 0 0 0
542 1 15.200000000000003 26.6 47.5 0 0 0
547 1 15.200000000000003 30.400000000000006 32.300000000000004 0 0 0
548 1 15.200000000000003 28.5 38 0 0 0
549 3 15.200000000000003 30.400000000000006 36.1 0 0 0
550 1 13.300000000000004 30.400000000000006 41.8 0 0 0
551 2 15.200000000000003 28.5 41.8 0 0 0
552 1 15.200000000000003 30.400000000000006 39.9 0 0 0
553 1 13.300000000000004 30.400000000000006 45.6 0 0 0
554 3 15.200000000000003 28.5 45.6 0 0 0
555 1 15.200000000000003 30.400000000000006 43.7 0 0 0
556 1 13.300000000000004 28.5 47.5 0 0 0
557 1 13.300000000000004 30.400000000000006 49.4 0 0 0
558 1 15.200000000000003 28.5 49.4 0 0 0
559 2 15.200000000000003 30.400000000000006 47.5 0 0 0
575 1 15.200000000000003 32.300000000000004 30.400000000000006 0 0 0
576 2 13.300000000000004 34.2 34.2 0 0 0
577 1 15.200000000000003 32.300000000000004 34.2 0 0 0
578 2 15.200000000000003 34.2 32.300000000000004 0 0 0
579 1 13.300000000000004 32.300000000000004 36.1 0 0 0
580 2 13.300000000000004 34.2 38 0 0 0
581 3 15.200000000000003 32.300000000000004 38 0 0 0
582 1 15.200000000000003 34.2 36.1 0 0 0
583 1 13.300000000000004 32.300000000000004 39.9 0 0 0
584 2 13.300000000000004 34.2 41.8 0 0 0
585 1 15.200000000000003 32.300000000000004 41.8 0 0 0
586 1 15.200000000000003 34.2 39.9 0 0 0
587 3 13.300000000000004 32.300000000000004 43.7 0 0 0
588 1 13.300000000000004 34.2 45.6 0 0 0
589 1 15.200000000000003 32.300000000000004 45.6 0 0 0
590 2 15.200000000000003 34.2 43.7 0 0 0
591 3 13.300000000000004 32.300000000000004 47.5 0 0 0
592 2 13.300000000000004 34.2 49.4 0 0 0
593 1 15.200000000000003 32.300000000000004 49.4 0 0 0
594 1 15.200000000000003 34.2 47.5 0 0 0
617 1 15.200000000000003 36.1 30.400000000000006 0 0 0
618 2 15.200000000000003 38 28.5 0 0 0
619 1 13.300000000000004 36.1 32.300000000000004 0 0 0
620 1 13.300000000000004 38 34.2 0 0 0
621 1 15.200000000000003 36.1 34.2 0 0 0
622 1 15.200000000000003 38 32.300000000000004 0 0 0
623 1 13.300000000000004 36.1 36.1 0 0 0
624 2 13.300000000000004 38 38 0 0 0
625 3 15.200000000000003 36.1 38 0 0 0
626 3 15.200000000000003 38 36.1 0 0 0
627 1 13.300000000000004 36.1 39.9 0 0 0
628 2 13.300000000000004 38 41.8 0 0 0
629 2 15.200000000000003 36.1 41.8 0 0 0
630 1 15.200000000000003 38 39.9 0 0 0
631 1 13.300000000000004 36.1 43.7 0 0 0
632 3 13.300000000000004 38 45.6 0 0 0
633 1 15.200000000000003 36.1 45.6 0 0 0
634 1 15.200000000000003 38 43.7 0 0 0
635 1 13.300000000000004 36.1 47.5 0 0 0
636 2 13.300000000000004 38 49.4 0 0 0
637 2 15.200000000000003 36.1 49.4 0 0 0
638 2 15.200000000000003 38 47.5 0 0 0
663 1 13.300000000000004 41.8 30.400000000000006 0 0 0
664 1 15.200000000000003 39.9 30.400000000000006 0 0 0
665 1 15.200000000000003 41.8 28.5 0 0 0
666 2 13.300000000000004 39.9 32.300000000000004 0 0 0
667 1 13.300000000000004 41.8 34.2 0 0 0
668 1 15.200000000000003 39.9 34.2 0 0 0
669 1 15.200000000000003 41.8 32.300000000000004 0 0 0
670 2 13.300000000000004 39.9 36.1 0 0 0
671 2 13.300000000000004 41.8 38 0 0 0
672 1 15.200000000000003 39.9 38 0 0 0
673 1 15.200000000000003 41.8 36.1 0 0 0
674 2 13.300000000000004 39.9 39.9 0 0 0
675 3 13.300000000000004 41.8 41.8 0 0 0
676 1 15.200000000000003 39.9 41.8 0 0 0
677 1 15.200000000000003 41.8 39.9 0 0 0
678 2 13.300000000000004 39.9 43.7 0 0 0
679 1 13.300000000000004 41.8 45.6 0 0 0
680 1 15.200000000000003 39.9 45.6 0 0 0
681 2 15.200000000000003 41.8 43.7 0 0 0
682 3 13.300000000000004 39.9 47.5 0 0 0
683 1 13.300000000000004 41.8 49.4 0 0 0
684 1 15.200000000000003 39.9 49.4 0 0 0
685 1 15.200000000000003 41.8 47.5 0 0 0
711 1 15.200000000000003 43.7 26.6 0 0 0
712 3 13.300000000000004 45.6 30.400000000000006 0 0 0
713 2 15.200000000000003 43.7 30.400000000000006 0 0 0
714 1 15.200000000000003 45.6 28.5 0 0 0
715 1 13.300000000000004 43.7 32.300000000000004 0 0 0
716 1 13.300000000000004 45.6 34.2 0 0 0
717 1 15.200000000000003 43.7 34.2 0 0 0
718 1 15.200000000000003 45.6 32.300000000000004 0 0 0
719 2 13.300000000000004 43.7 36.1 0 0 0
720 1 13.300000000000004 45.6 38 0 0 0
721 1 15.200000000000003 43.7 38 0 0 0
722 2 15.200000000000003 45.6 36.1 0 0 0
723 3 13.300000000000004 43.7 39.9 0 0 0
724 2 13.300000000000004 45.6 41.8 0 0 0
725 1 15.200000000000003 43.7 41.8 0 0 0
726 3 15.200000000000003 45.6 39.9 0 0 0
727 1 13.300000000000004 43.7 43.7 0 0 0
728 1 13.300000000000004 45.6 45.6 0 0 0
729 1 15.200000000000003 43.7 45.6 0 0 0
730 2 15.200000000000003 45.6 43.7 0 0 0
731 1 13.300000000000004 43.7 47.5 0 0 0
732 1 13.300000000000004 45.6 49.4 0 0 0
733 3 15.200000000000003 43.7 49.4 0 0 0
734 1 15.200000000000003 45.6 47.5 0 0 0
761 2 15.200000000000003 47.5 26.6 0 0 0
762 1 15.200000000000003 49.4 24.700000000000003 0 0 0
763 1 13.300000000000004 47.5 28.5 0 0 0
764 1 13.300000000000004 49.4 30.400000000000006 0 0 0
765 1 15.200000000000003 47.5 30.400000000000006 0 0 0
766 1 15.200000000000003 49.4 28.5 0 0 0
767 1 13.300000000000004 47.5 32.300000000000004 0 0 0
768 2 13.300000000000004 49.4 34.2 0 0 0
769 1 15.200000000000003 47.5 34.2 0 0 0
770 2 15.200000000000003 49.4 32.300000000000004 0 0 0
771 1 13.300000000000004 47.5 36.1 0 0 0
772 1 13.300000000000004 49.4 38 0 0 0
773 2 15.200000000000003 47.5 38 0 0 0
774 1 15.200000000000003 49.4 36.1 0 0 0
775 1 13.300000000000004 47.5 39.9 0 0 0
776 1 13.300000000000004 49.4 41.8 0 0 0
777 3 15.200000000000003 47.5 41.8 0 0 0
778 2 15.200000000000003 49.4 39.9 0 0 0
779 1 13.300000000000004 47.5 43.7 0 0 0
780 1 13.300000000000004 49.4 45.6 0 0 0
781 2 15.200000000000003 47.5 45.6 0 0 0
782 1 15.200000000000003 49.4 43.7 0 0 0
783 1 13.300000000000004 47.5 47.5 0 0 0
784 1 13.300000000000004 49.4 49.4 0 0 0
785 1 15.200000000000003 47.5 49.4 0 0 0
786 1 15.200000000000003 49.4 47.5 0 0 0
1117 3 19 19 47.5 0 0 0
1120 2 19 22.800000000000004 36.1 0 0 0
1121 1 19 20.900000000000006 41.8 0 0 0
1122 2 19 22.800000000000004 39.9 0 0 0
1123 1 17.10000000000001 22.800000000000004 45.6 0 0 0
1124 3 19 20.900000000000006 45.6 0 0 0
1125 2 19 22.800000000000004 43.7 0 0 0
1126 2 17.10000000000001 22.800000000000004 49.4 0 0 0
1127 3 19 20.900000000000006 49.4 0 0 0
1128 1 19 22.800000000000004 47.5 0 0 0
1140 1 19 24.700000000000003 30.400000000000006 0 0 0
1141 1 19 26.6 28.5 0 0 0
1142 1 17.10000000000001 26.6 34.2 0 0 0
1143 1 19 24.700000000000003 34.2 0 0 0
1144 1 19 26.6 32.300000000000004 0 0 0
1145 1 17.10000000000001 26.6 38 0 0 0
1146 2 19 24.700000000000003 38 0 0 0
1147 3 19 26.6 36.1 0 0 0
1148 3 17.10000000000001 24.700000000000003 39.9 0 0 0
1149 3 17.10000000000001 26.6 41.8 0 0 0
1150 1 19 24.700000000000003 41.8 0 0 0
1151 3 19 26.6 39.9 0 0 0
1152 3 17.10000000000001 24.700000000000003 43.7 0 0 0
1153 3 17.10000000000001 26.6 45.6 0 0 0
1154 2 19 24.700000000000003 45.6 0 0 0
1155 1 19 26.6 43.7 0 0 0
1156 1 17.10000000000001 24.700000000000003 47.5 0 0 0
1157 2 17.10000000000001 26.6 49.4 0 0 0
1158 3 19 24.700000000000003 49.4 0 0 0
1159 2 19 26.6 47.5 0 0 0
1182 1 19 28.5 26.6 0 0 0
1183 3 19 30.400000000000006 24.700000000000003 0 0 0
1184 1 17.10000000000001 28.5 28.5 0 0 0
1185 1 17.10000000000001 30.400000000000006 30.400000000000006 0 0 0
1186 3 19 28.5 30.400000000000006 0 0 0
1187 2 19 30.400000000000006 28.5 0 0 0
1188 1 17.10000000000001 28.5 32.300000000000004 0 0 0
1189 1 17.10000000000001 30.400000000000006 34.2 0 0 0
1190 1 19 28.5 34.2 0 0 0
1191 3 19 30.400000000000006 32.300000000000004 0 0 0
1192 1 17.10000000000001 28.5 36.1 0 0 0
1193 1 17.10000000000001 30.400000000000006 38 0 0 0
1194 3 19 28.5 38 0 0 0
1195 1 19 30.400000000000006 36.1 0 0 0
1196 3 17.10000000000001 28.5 39.9 0 0 0
1197 1 17.10000000000001 30.400000000000006 41.8 0 0 0
1198 1 19 28.5 41.8 0 0 0
1199 1 19 30.400000000000006 39.9 0 0 0
1200 1 17.10000000000001 28.5 43.7 0 0 0
1201 1 17.10000000000001 30.400000000000006 45.6 0 0 0
1202 1 19 28.5 45.6 0 0 0
1203 1 19 30.400000000000006 43.7 0 0 0
1204 1 17.10000000000001 28.5 47.5 0 0 0
1205 3 17.10000000000001 30.400000000000006 49.4 0 0 0
1206 2 19 28.5 49.4 0 0 0
1207 2 19 30.400000000000006 47.5 0 0 0
1236 1 17.10000000000001 34.2 26.6 0 0 0
1237 1 19 32.300000000000004 26.6 0 0 0
1238 1 19 34.2 24.700000000000003 0 0 0
1239 1 17.10000000000001 32.300000000000004 28.5 0 0 0
1240 3 17.10000000000001 34.2 30.400000000000006 0 0 0
1241 1 19 32.300000000000004 30.400000000000006 0 0 0
1242 1 19 34.2 28.5 0 0 0
1243 3 17.10000000000001 32.300000000000004 32.300000000000004 0 0 0
1244 3 17.10000000000001 34.2 34.2 0 0 0
1245 3 19 32.300000000000004 34.2 0 0 0
1246 2 19 34.2 32.300000000000004 0 0 0
1247 3 17.10000000000001 32.300000000000004 36.1 0 0 0
1248 1 17.10000000000001 34.2 38 0 0 0
1249 1 19 32.300000000000004 38 0 0 0
1250 2 19 34.2 36.1 0 0 0
1251 1 17.10000000000001 32.300000000000004 39.9 0 0 0
1252 2 17.10000000000001 34.2 41.8 0 0 0
1253 3 19 32.300000000000004 41.8 0 0 0
1254 3 19 34.2 39.9 0 0 0
1255 3 17.10000000000001 32.300000000000004 43.7 0 0 0
1256 2 17.10000000000001 34.2 45.6 0 0 0
1257 1 19 32.300000000000004 45.6 0 0 0
1258 2 19 34.2 43.7 0 0 0
1259 2 17.10000000000001 32.300000000000004 47.5 0 0 0
1260 1 17.10000000000001 34.2 49.4 0 0 0
1261 1 19 32.300000000000004 49.4 0 0 0
1262 1 19 34.2 47.5 0 0 0
1292 1 19 36.1 22.800000000000004 0 0 0
1293 1 17.10000000000001 38 26.6 0 0 0
1294 2 19 36.1 26.6 0 0 0
1295 1 19 38 24.700000000000003 0 0 0
1296 2 17.10000000000001 36.1 28.5 0 0 0
1297 1 17.10000000000001 38 30.400000000000006 0 0 0
1298 3 19 36.1 30.400000000000006 0 0 0
1299 3 19 38 28.5 0 0 0
1300 2 17.10000000000001 36.1 32.300000000000004 0 0 0
1301 1 17.10000000000001 38 34.2 0 0 0
1302 3 19 36.1 34.2 0 0 0
1303 1 19 38 32.300000000000004 0 0 0
1304 2 17.10000000000001 36.1 36.1 0 0 0
1305 2 17.10000000000001 38 38 0 0 0
1306 3 19 36.1 38 0 0 0
1307 3 19 38 36.1 0 0 0
1308 1 17.10000000000001 36.1 39.9 0 0 0
1309 2 17.10000000000001 38 41.8 0 0 0
1310 1 19 36.1 41.8 0 0 0
1311 3 19 38 39.9 0 0 0
1312 1 17.10000000000001 36.1 43.7 0 0 0
1313 1 17.10000000000001 38 45.6 0 0 0
1314 1 19 36.1 45.6 0 0 0
1315 1 19 38 43.7 0 0 0
1316 3 17.10000000000001 36.1 47.5 0 0 0
1317 1 17.10000000000001 38 49.4 0 0 0
1318 2 19 36.1 49.4 0 0 0
1319 1 19 38 47.5 0 0 0
1350 1 19 39.9 22.800000000000004 0 0 0
1351 3 19 41.8 20.900000000000006 0 0 0
1352 2 17.10000000000001 39.9 24.700000000000003 0 0 0
1353 1 17.10000000000001 41.8 26.6 0 0 0
1354 1 19 39.9 26.6 0 0 0
1355 1 19 41.8 24.700000000000003 0 0 0
1356 1 17.10000000000001 39.9 28.5 0 0 0
1357 1 17.10000000000001 41.8 30.400000000000006 0 0 0
1358 1 19 39.9 30.400000000000006 0 0 0
1359 1 19 41.8 28.5 0 0 0
1360 1 17.10000000000001 39.9 32.300000000000004 0 0 0
1361 1 17.10000000000001 41.8 34.2 0 0 0
1362 1 19 39.9 34.2 0 0 0
1363 2 19 41.8 32.300000000000004 0 0 0
1364 1 17.10000000000001 39.9 36.1 0 0 0
1365 1 17.10000000000001 41.8 38 0 0 0
1366 1 19 39.9 38 0 0 0
1367 1 19 41.8 36.1 0 0 0
1368 1 17.10000000000001 39.9 39.9 0 0 0
1369 2 17.10000000000001 41.8 41.8 0 0 0
1370 3 19 39.9 41.8 0 0 0
1371 3 19 41.8 39.9 0 0 0
1372 1 17.10000000000001 39.9 43.7 0 0 0
1373 2 17.10000000000001 41.8 45.6 0 0 0
1374 1 19 39.9 45.6 0 0 0
1375 1 19 41.8 43.7 0 0 0
1376 1 17.10000000000001 39.9 47.5 0 0 0
1377 3 17.10000000000001 41.8 49.4 0 0 0
1378 2 19 39.9 49.4 0 0 0
1379 3 19 41.8 47.5 0 0 0
1412 1 17.10000000000001 45.6 22.800000000000004 0 0 0
1413 1 19 43.7 22.800000000000004 0 0 0
1414 1 19 45.6 20.900000000000006 0 0 0
1415 2 17.10000000000001 43.7 24.700000000000003 0 0 0
1416 1 17.10000000000001 45.6 26.6 0 0 0
1417 1 19 43.7 26.6 0 0 0
1418 1 19 45.6 24.700000000000003 0 0 0
1419 1 17.10000000000001 43.7 28.5 0 0 0
1420 1 17.10000000000001 45.6 30.400000000000006 0 0 0
1421 1 19 43.7 30.400000000000006 0 0 0
1422 1 19 45.6 28.5 0 0 0
1423 1 17.10000000000001 43.7 32.300000000000004 0 0 0
1424 3 17.10000000000001 45.6 34.2 0 0 0
1425 1 19 43.7 34.2 0 0 0
1426 3 19 45.6 32.300000000000004 0 0 0
1427 1 17.10000000000001 43.7 36.1 0 0 0
1428 1 17.10000000000001 45.6 38 0 0 0
1429 3 19 43.7 38 0 0 0
1430 3 19 45.6 36.1 0 0 0
1431 1 17.10000000000001 43.7 39.9 0 0 0
1432 1 17.10000000000001 45.6 41.8 0 0 0
1433 1 19 43.7 41.8 0 0 0
1434 1 19 45.6 39.9 0 0 0
1435 3 17.10000000000001 43.7 43.7 0 0 0
1436 3 17.10000000000001 45.6 45.6 0 0 0
1437 3 19 43.7 45.6 0 0 0
1438 1 19 45.6 43.7 0 0 0
1439 1 17.10000000000001 43.7 47.5 0 0 0
1440 3 17.10000000000001 45.6 49.4 0 0 0
1441 1 19 43.7 49.4 0 0 0
1442 3 19 45.6 47.5 0 0 0
1476 3 19 47.5 19 0 0 0
1477 3 17.10000000000001 49.4 22.800000000000004 0 0 0
1478 2 19 47.5 22.800000000000004 0 0 0
1479 1 19 49.4 20.900000000000006 0 0 0
1480 1 17.10000000000001 47.5 24.700000000000003 0 0 0
1481 1 17.10000000000001 49.4 26.6 0 0 0
1482 1 19 47.5 26.6 0 0 0
1483 1 19 49.4 24.700000000000003 0 0 0
1484 1 17.10000000000001 47.5 28.5 0 0 0
1485 2 17.10000000000001 49.4 30.400000000000006 0 0 0
1486 1 19 47.5 30.400000000000006 0 0 0
1487 1 19 49.4 28.5 0 0 0
1488 1 17.10000000000001 47.5 32.300000000000004 0 0 0
1489 2 17.10000000000001 49.4 34.2 0 0 0
1490 3 19 47.5 34.2 0 0 0
1491 1 19 49.4 32.300000000000004 0 0 0
1492 1 17.10000000000001 47.5 36.1 0 0 0
1493 1 17.10000000000001 49.4 38 0 0 0
1494 1 19 47.5 38 0 0 0
1495 2 19 49.4 36.1 0 0 0
1496 2 17.10000000000001 47.5 39.9 0 0 0
1497 1 17.10000000000001 49.4 41.8 0 0 0
1498 1 19 47.5 41.8 0 0 0
1499 1 19 49.4 39.9 0 0 0
1500 1 17.10000000000001 47.5 43.7 0 0 0
1501 2 17.10000000000001 49.4 45.6 0 0 0
1502 3 19 47.5 45.6 0 0 0
1503 1 19 49.4 43.7 0 0 0
1504 1 17.10000000000001 47.5 47.5 0 0 0
1505 2 17.10000000000001 49.4 49.4 0 0 0
1506 2 19 47.5 49.4 0 0 0
1507 1 19 49.4 47.5 0 0 0
2002 3 22.800000000000004 19 36.1 0 0 0
2003 1 20.900000000000006 19 41.8 0 0 0
2004 3 22.800000000000004 19 39.9 0 0 0
2005 1 20.900000000000006 19 45.6 0 0 0
2006 2 22.800000000000004 17.10000000000001 45.6 0 0 0
2007 3 22.800000000000004 19 43.7 0 0 0
2008 1 20.900000000000006 19 49.4 0 0 0
2009 1 22.800000000000004 17.10000000000001 49.4 0 0 0
2010 3 22.800000000000004 19 47.5 0 0 0
2022 1 20.900000000000006 22.800000000000004 26.6 0 0 0
2023 1 22.800000000000004 20.900000000000006 26.6 0 0 0
2024 3 22.800000000000004 22.800000000000004 24.700000000000003 0 0 0
2025 1 20.900000000000006 22.800000000000004 30.400000000000006 0 0 0
2026 1 22.800000000000004 20.900000000000006 30.400000000000006 0 0 0
2027 3 22.800000000000004 22.800000000000004 28.5 0 0 0
2028 1 20.900000000000006 20.900000000000006 32.300000000000004 0 0 0
2029 1 20.900000000000006 22.800000000000004 34.2 0 0 0
2030 1 22.800000000000004 20.900000000000006 34.2 0 0 0
2031 1 22.800000000000004 22.800000000000004 32.300000000000004 0 0 0
2032 2 20.900000000000006 20.900000000000006 36.1 0 0 0
2033 1 20.900000000000006 22.800000000000004 38 0 0 0
2034 2 22.800000000000004 20.900000000000006 38 0 0 0
2035 1 22.800000000000004 22.800000000000004 36.1 0 0 0
2036 3 20.900000000000006 20.900000000000006 39.9 0 0 0
2037 3 20.900000000000006 22.800000000000004 41.8 0 0 0
2038 2 22.800000000000004 20.900000000000006 41.8 0 0 0
2039 2 22.800000000000004 22.800000000000004 39.9 0 0 0
2040 1 20.900000000000006 20.900000000000006 43.7 0 0 0
2041 1 20.900000000000006 22.800000000000004 45.6 0 0 0
2042 1 22.800000000000004 20.900000000000006 45.6 0 0 0
2043 1 22.800000000000004 22.800000000000004 43.7 0 0 0
2044 1 20.900000000000006 20.900000000000006 47.5 0 0 0
2045 1 20.900000000000006 22.800000000000004 49.4 0 0 0
2046 1 22.800000000000004 20.900000000000006 49.4 0 0 0
2047 1 22.800000000000004 22.800000000000004 47.5 0 0 0
2076 1 20.900000000000006 26.6 22.800000000000004 0 0 0
2077 1 22.800000000000004 24.700000000000003 22.800000000000004 0 0 0
2078 1 22.800000000000004 26.6 20.900000000000006 0 0 0
2079 1 20.900000000000006 24.700000000000003 24.700000000000003 0 0 0
2080 3 20.900000000000006 26.6 26.6 0 0 0
2081 3 22.800000000000004 24.700000000000003 26.6 0 0 0
2082 1 22.800000000000004 26.6 24.700000000000003 0 0 0
2083 2 20.900000000000006 24.700000000000003 28.5 0 0 0
2084 1 20.900000000000006 26.6 30.400000000000006 0 0 0
2085 1 22.800000000000004 24.700000000000003 30.400000000000006 0 0 0
2086 1 22.800000000000004 26.6 28.5 0 0 0
2087 1 20.900000000000006 24.700000000000003 32.300000000000004 0 0 0
2088 3 20.900000000000006 26.6 34.2 0 0 0
2089 1 22.800000000000004 24.700000000000003 34.2 0 0 0
2090 1 22.800000000000004 26.6 32.300000000000004 0 0 0
2091 1 20.900000000000006 24.700000000000003 36.1 0 0 0
2092 2 20.900000000000006 26.6 38 0 0 0
2093 1 22.800000000000004 24.700000000000003 38 0 0 0
2094 1 22.800000000000004 26.6 36.1 0 0 0
2095 2 20.900000000000006 24.700000000000003 39.9 0 0 0
2096 1 20.900000000000006 26.6 41.8 0 0 0
2097 2 22.800000000000004 24.700000000000003 41.8 0 0 0
2098 1 22.800000000000004 26.6 39.9 0 0 0
2099 1 20.900000000000006 24.700000000000003 43.7 0 0 0
2100 1 20.900000000000006 26.6 45.6 0 0 0
2101 1 22.800000000000004 24.700000000000003 45.6 0 0 0
2102 3 22.800000000000004 26.6 43.7 0 0 0
2103 1 20.900000000000006 24.700000000000003 47.5 0 0 0
2104 3 20.900000000000006 26.6 49.4 0 0 0
2105 1 22.800000000000004 24.700000000000003 49.4 0 0 0
2106 1 22.800000000000004 26.6 47.5 0 0 0
2140 2 20.900000000000006 30.400000000000006 22.800000000000004 0 0 0
2141 3 22.800000000000004 28.5 22.800000000000004 0 0 0
2142 1 22.800000000000004 30.400000000000006 20.900000000000006 0 0 0
2143 3 20.900000000000006 28.5 24.700000000000003 0 0 0
2144 3 20.900000000000006 30.400000000000006 26.6 0 0 0
2145 1 22.800000000000004 28.5 26.6 0 0 0
2146 1 22.800000000000004 30.400000000000006 24.700000000000003 0 0 0
2147 2 20.900000000000006 28.5 28.5 0 0 0
2148 1 20.900000000000006 30.400000000000006 30.400000000000006 0 0 0
2149 1 22.800000000000004 28.5 30.400000000000006 0 0 0
2150 1 22.800000000000004 30.400000000000006 28.5 0 0 0
2151 1 20.900000000000006 28.5 32.300000000000004 0 0 0
2152 1 20.900000000000006 30.400000000000006 34.2 0 0 0
2153 1 22.800000000000004 28.5 34.2 0 0 0
2154 1 22.800000000000004 30.400000000000006 32.300000000000004 0 0 0
2155 1 20.900000000000006 28.5 36.1 0 0 0
2156 3 20.900000000000006 30.400000000000006 38 0 0 0
2157 1 22.800000000000004 28.5 38 0 0 0
2158 1 22.800000000000004 30.400000000000006 36.1 0 0 0
2159 1 20.900000000000006 28.5 39.9 0 0 0
2160 3 20.900000000000006 30.400000000000006 41.8 0 0 0
2161 1 22.800000000000004 28.5 41.8 0 0 0
2162 2 22.800000000000004 30.400000000000006 39.9 0 0 0
2163 1 20.900000000000006 28.5 43.7 0 0 0
2164 1 20.900000000000006 30.400000000000006 45.6 0 0 0
2165 3 22.800000000000004 28.5 45.6 0 0 0
2166 1 22.800000000000004 30.400000000000006 43.7 0 0 0
2167 1 20.900000000000006 28.5 47.5 0 0 0
2168 3 20.900000000000006 30.400000000000006 49.4 0 0 0
2169 1 22.800000000000004 28.5 49.4 0 0 0
2170 1 22.800000000000004 30.400000000000006 47.5 0 0 0
2204 2 20.900000000000006 32.300000000000004 20.900000000000006 0 0 0
2205 2 20.900000000000006 34.2 22.800000000000004 0 0 0
2206 1 22.800000000000004 32.300000000000004 22.800000000000004 0 0 0
2207 1 22.800000000000004 34.2 20.900000000000006 0 0 0
2208 3 20.900000000000006 32.300000000000004 24.700000000000003 0 0 0
2209 1 20.900000000000006 34.2 26.6 0 0 0
2210 1 22.800000000000004 32.300000000000004 26.6 0 0 0
2211 1 22.800000000000004 34.2 24.700000000000003 0 0 0
2212 1 20.900000000000006 32.300000000000004 28.5 0 0 0
2213 1 20.900000000000006 34.2 30.400000000000006 0 0 0
2214 2 22.800000000000004 32.300000000000004 30.400000000000006 0 0 0
2215 3 22.800000000000004 34.2 28.5 0 0 0
2216 3 20.900000000000006 32.300000000000004 32.300000000000004 0 0 0
2217 2 20.900000000000006 34.2 34.2 0 0 0
2218 3 22.800000000000004 32.300000000000004 34.2 0 0 0
2219 3 22.800000000000004 34.2 32.300000000000004 0 0 0
2220 3 20.900000000000006 32.300000000000004 36.1 0 0 0
2221 2 20.900000000000006 34.2 38 0 0 0
2222 1 22.800000000000004 32.300000000000004 38 0 0 0
2223 2 22.800000000000004 34.2 36.1 0 0 0
2224 3 20.900000000000006 32.300000000000004 39.9 0 0 0
2225 1 20.900000000000006 34.2 41.8 0 0 0
2226 1 22.800000000000004 32.300000000000004 41.8 0 0 0
2227 2 22.800000000000004 34.2 39.9 0 0 0
2228 1 20.900000000000006 32.300000000000004 43.7 0 0 0
2229 1 20.900000000000006 34.2 45.6 0 0 0
2230 3 22.800000000000004 32.300000000000004 45.6 0 0 0
2231 1 22.800000000000004 34.2 43.7 0 0 0
2232 1 20.900000000000006 32.300000000000004 47.5 0 0 0
2233 3 20.900000000000006 34.2 49.4 0 0 0
2234 3 22.800000000000004 32.300000000000004 49.4 0 0 0
2235 1 22.800000000000004 34.2 47.5 0 0 0
2270 2 22.800000000000004 36.1 19 0 0 0
2271 3 20.900000000000006 36.1 20.900000000000006 0 0 0
2272 1 20.900000000000006 38 22.800000000000004 0 0 0
2273 1 22.800000000000004 36.1 22.800000000000004 0 0 0
2274 2 22.800000000000004 38 20.900000000000006 0 0 0
2275 1 20.900000000000006 36.1 24.700000000000003 0 0 0
2276 1 20.900000000000006 38 26.6 0 0 0
2277 1 22.800000000000004 36.1 26.6 0 0 0
2278 3 22.800000000000004 38 24.700000000000003 0 0 0
2279 1 20.900000000000006 36.1 28.5 0 0 0
2280 1 20.900000000000006 38 30.400000000000006 0 0 0
2281 1 22.800000000000004 36.1 30.400000000000006 0 0 0
2282 1 22.800000000000004 38 28.5 0 0 0
2283 3 20.900000000000006 36.1 32.300000000000004 0 0 0
2284 2 20.900000000000006 38 34.2 0 0 0
2285 2 22.800000000000004 36.1 34.2 0 0 0
2286 2 22.800000000000004 38 32.300000000000004 0 0 0
2287 1 20.900000000000006 36.1 36.1 0 0 0
2288 1 20.900000000000006 38 38 0 0 0
2289 1 22.800000000000004 36.1 38 0 0 0
2290 1 22.800000000000004 38 36.1 0 0 0
2291 3 20.900000000000006 36.1 39.9 0 0 0
2292 1 20.900000000000006 38 41.8 0 0 0
2293 3 22.800000000000004 36.1 41.8 0 0 0
2294 1 22.800000000000004 38 39.9 0 0 0
2295 1 20.900000000000006 36.1 43.7 0 0 0
2296 1 20.900000000000006 38 45.6 0 0 0
2297 1 22.800000000000004 36.1 45.6 0 0 0
2298 1 22.800000000000004 38 43.7 0 0 0
2299 1 20.900000000000006 36.1 47.5 0 0 0
2300 2 20.900000000000006 38 49.4 0 0 0
2301 1 22.800000000000004 36.1 49.4 0 0 0
2302 1 22.800000000000004 38 47.5 0 0 0
2338 1 20.900000000000006 41.8 19 0 0 0
2339 1 22.800000000000004 39.9 19 0 0 0
2340 1 20.900000000000006 39.9 20.900000000000006 0 0 0
2341 2 20.900000000000006 41.8 22.800000000000004 0 0 0
2342 1 22.800000000000004 39.9 22.800000000000004 0 0 0
2343 1 22.800000000000004 41.8 20.900000000000006 0 0 0
2344 2 20.900000000000006 39.9 24.700000000000003 0 0 0
2345 1 20.900000000000006 41.8 26.6 0 0 0
2346 3 22.800000000000004 39.9 26.6 0 0 0
2347 1 22.800000000000004 41.8 24.700000000000003 0 0 0
2348 2 20.900000000000006 39.9 28.5 0 0 0
2349 1 20.900000000000006 41.8 30.400000000000006 0 0 0
2350 1 22.800000000000004 39.9 30.400000000000006 0 0 0
2351 3 22.800000000000004 41.8 28.5 0 0 0
2352 3 20.900000000000006 39.9 32.300000000000004 0 0 0
2353 1 20.900000000000006 41.8 34.2 0 0 0
2354 1 22.800000000000004 39.9 34.2 0 0 0
2355 1 22.800000000000004 41.8 32.300000000000004 0 0 0
2356 3 20.900000000000006 39.9 36.1 0 0 0
2357 1 20.900000000000006 41.8 38 0 0 0
2358 1 22.800000000000004 39.9 38 0 0 0
2359 1 22.800000000000004 41.8 36.1 0 0 0
2360 3 20.900000000000006 39.9 39.9 0 0 0
2361 1 20.900000000000006 41.8 41.8 0 0 0
2362 1 22.800000000000004 39.9 41.8 0 0 0
2363 1 22.800000000000004 41.8 39.9 0 0 0
2364 1 20.900000000000006 39.9 43.7 0 0 0
2365 3 20.900000000000006 41.8 45.6 0 0 0
2366 3 22.800000000000004 39.9 45.6 0 0 0
2367 2 22.800000000000004 41.8 43.7 0 0 0
2368 1 20.900000000000006 39.9 47.5 0 0 0
2369 2 20.900000000000006 41.8 49.4 0 0 0
2370 1 22.800000000000004 39.9 49.4 0 0 0
2371 1 22.800000000000004 41.8 47.5 0 0 0
2408 1 20.900000000000006 45.6 19 0 0 0
2409 1 22.800000000000004 43.7 19 0 0 0
2410 3 22.800000000000004 45.6 17.10000000000001 0 0 0
2411 1 20.900000000000006 43.7 20.900000000000006 0 0 0
2412 1 20.900000000000006 45.6 22.800000000000004 0 0 0
2413 1 22.800000000000004 43.7 22.800000000000004 0 0 0
2414 1 22.800000000000004 45.6 20.900000000000006 0 0 0
2415 3 20.900000000000006 43.7 24.700000000000003 0 0 0
2416 1 20.900000000000006 45.6 26.6 0 0 0
2417 3 22.800000000000004 43.7 26.6 0 0 0
2418 2 22.800000000000004 45.6 24.700000000000003 0 0 0
2419 3 20.900000000000006 43.7 28.5 0 0 0
2420 1 20.900000000000006 45.6 30.400000000000006 0 0 0
2421 3 22.800000000000004 43.7 30.400000000000006 0 0 0
2422 1 22.800000000000004 45.6 28.5 0 0 0
2423 1 20.900000000000006 43.7 32.300000000000004 0 0 0
2424 1 20.900000000000006 45.6 34.2 0 0 0
2425 1 22.800000000000004 43.7 34.2 0 0 0
2426 2 22.800000000000004 45.6 32.300000000000004 0 0 0
2427 1 20.900000000000006 43.7 36.1 0 0 0
2428 3 20.900000000000006 45.6 38 0 0 0
2429 1 22.800000000000004 43.7 38 0 0 0
2430 3 22.800000000000004 45.6 36.1 0 0 0
2431 1 20.900000000000006 43.7 39.9 0 0 0
2432 3 20.900000000000006 45.6 41.8 0 0 0
2433 2 22.800000000000004 43.7 41.8 0 0 0
2434 1 22.800000000000004 45.6 39.9 0 0 0
2435 1 20.900000000000006 43.7 43.7 0 0 0
2436 1 20.900000000000006 45.6 45.6 0 0 0
2437 1 22.800000000000004 43.7 45.6 0 0 0
2438 1 22.800000000000004 45.6 43.7 0 0 0
2439 1 20.900000000000006 43.7 47.5 0 0 0
2440 1 20.900000000000006 45.6 49.4 0 0 0
2441 1 22.800000000000004 43.7 49.4 0 0 0