model_files/PtCu/PtCu_30000/PtCu_320/PtCu_320_fcc_29879_temp.data (written by ASE) 

29879 	 atoms 
2  atom types
0.0                     100  xlo xhi
0.0                     100  ylo yhi
0.0                     100  zlo zhi


Atoms 

     1   1       1.925000000000004      44.275000000000006       46.20000000000001
     2   1       1.925000000000004      44.275000000000006      50.050000000000004
     3   1       1.925000000000004      44.275000000000006      53.900000000000006
     4   1       1.925000000000004       46.20000000000001      44.275000000000006
     5   1  7.1054273576010019e-15       46.20000000000001       46.20000000000001
     6   1  7.1054273576010019e-15      48.125000000000007      48.125000000000007
     7   1       1.925000000000004       46.20000000000001      48.125000000000007
     8   1       1.925000000000004      48.125000000000007       46.20000000000001
     9   1  7.1054273576010019e-15       46.20000000000001      50.050000000000004
    10   1  7.1054273576010019e-15      48.125000000000007      51.975000000000001
    11   1       1.925000000000004       46.20000000000001      51.975000000000001
    12   1       1.925000000000004      48.125000000000007      50.050000000000004
    13   1  7.1054273576010019e-15       46.20000000000001      53.900000000000006
    14   1       1.925000000000004       46.20000000000001      55.825000000000003
    15   1       1.925000000000004      48.125000000000007      53.900000000000006
    16   1       1.925000000000004      50.050000000000004      44.275000000000006
    17   1  7.1054273576010019e-15      50.050000000000004       46.20000000000001
    18   1  7.1054273576010019e-15      51.975000000000001      48.125000000000007
    19   1       1.925000000000004      50.050000000000004      48.125000000000007
    20   1       1.925000000000004      51.975000000000001       46.20000000000001
    21   1  7.1054273576010019e-15      50.050000000000004      50.050000000000004
    22   1  7.1054273576010019e-15      51.975000000000001      51.975000000000001
    23   1       1.925000000000004      50.050000000000004      51.975000000000001
    24   1       1.925000000000004      51.975000000000001      50.050000000000004
    25   1  7.1054273576010019e-15      50.050000000000004      53.900000000000006
    26   1       1.925000000000004      50.050000000000004      55.825000000000003
    27   1       1.925000000000004      51.975000000000001      53.900000000000006
    28   1       1.925000000000004      53.900000000000006      44.275000000000006
    29   1  7.1054273576010019e-15      53.900000000000006       46.20000000000001
    30   1       1.925000000000004      53.900000000000006      48.125000000000007
    31   1       1.925000000000004      55.825000000000003       46.20000000000001
    32   1  7.1054273576010019e-15      53.900000000000006      50.050000000000004
    33   1       1.925000000000004      53.900000000000006      51.975000000000001
    34   1       1.925000000000004      55.825000000000003      50.050000000000004
    35   1  7.1054273576010019e-15      53.900000000000006      53.900000000000006
    36   1       1.925000000000004      53.900000000000006      55.825000000000003
    37   1       1.925000000000004      55.825000000000003      53.900000000000006
    38   1      3.8500000000000081      40.425000000000004      40.425000000000004
    39   1      5.7750000000000057      38.500000000000007      40.425000000000004
    40   1      5.7750000000000057      40.425000000000004      38.500000000000007
    41   1      3.8500000000000081      40.425000000000004      44.275000000000006
    42   1      5.7750000000000057      38.500000000000007      44.275000000000006
    43   1      5.7750000000000057      40.425000000000004      42.350000000000009
    44   1      3.8500000000000081      40.425000000000004      48.125000000000007
    45   1      5.7750000000000057      38.500000000000007      48.125000000000007
    46   1      5.7750000000000057      40.425000000000004       46.20000000000001
    47   1      3.8500000000000081      40.425000000000004      51.975000000000001
    48   1      5.7750000000000057      38.500000000000007      51.975000000000001
    49   1      5.7750000000000057      40.425000000000004      50.050000000000004
    50   1      3.8500000000000081      40.425000000000004      55.825000000000003
    51   1      5.7750000000000057      38.500000000000007      55.825000000000003
    52   1      5.7750000000000057      40.425000000000004      53.900000000000006
    53   1      3.8500000000000081      40.425000000000004      59.674999999999997
    54   1      5.7750000000000057      38.500000000000007      59.674999999999997
    55   1      5.7750000000000057      40.425000000000004      57.750000000000014
    56   1      5.7750000000000057      40.425000000000004      61.600000000000009
    57   1      3.8500000000000081      44.275000000000006      40.425000000000004
    58   1      5.7750000000000057      42.350000000000009      40.425000000000004
    59   1      5.7750000000000057      44.275000000000006      38.500000000000007
    60   1      3.8500000000000081      42.350000000000009      42.350000000000009
    61   1      3.8500000000000081      44.275000000000006      44.275000000000006
    62   1      5.7750000000000057      42.350000000000009      44.275000000000006
    63   1      5.7750000000000057      44.275000000000006      42.350000000000009
    64   1      3.8500000000000081      42.350000000000009       46.20000000000001
    65   1      3.8500000000000081      44.275000000000006      48.125000000000007
    66   1      5.7750000000000057      42.350000000000009      48.125000000000007
    67   1      5.7750000000000057      44.275000000000006       46.20000000000001
    68   1      3.8500000000000081      42.350000000000009      50.050000000000004
    69   1      3.8500000000000081      44.275000000000006      51.975000000000001
    70   1      5.7750000000000057      42.350000000000009      51.975000000000001
    71   1      5.7750000000000057      44.275000000000006      50.050000000000004
    72   1      3.8500000000000081      42.350000000000009      53.900000000000006
    73   1      3.8500000000000081      44.275000000000006      55.825000000000003
    74   1      5.7750000000000057      42.350000000000009      55.825000000000003
    75   1      5.7750000000000057      44.275000000000006      53.900000000000006
    76   1      3.8500000000000081      42.350000000000009      57.750000000000014
    77   1      3.8500000000000081      44.275000000000006      59.674999999999997
    78   1      5.7750000000000057      42.350000000000009      59.674999999999997
    79   1      5.7750000000000057      44.275000000000006      57.750000000000014
    80   1      5.7750000000000057      44.275000000000006      61.600000000000009
    81   1      3.8500000000000081      48.125000000000007      40.425000000000004
    82   1      5.7750000000000057       46.20000000000001      40.425000000000004
    83   1      5.7750000000000057      48.125000000000007      38.500000000000007
    84   1      3.8500000000000081       46.20000000000001      42.350000000000009
    85   1      3.8500000000000081      48.125000000000007      44.275000000000006
    86   1      5.7750000000000057       46.20000000000001      44.275000000000006
    87   1      5.7750000000000057      48.125000000000007      42.350000000000009
    88   1      3.8500000000000081       46.20000000000001       46.20000000000001
    89   1      3.8500000000000081      48.125000000000007      48.125000000000007
    90   1      5.7750000000000057       46.20000000000001      48.125000000000007
    91   1      5.7750000000000057      48.125000000000007       46.20000000000001
    92   1      3.8500000000000081       46.20000000000001      50.050000000000004
    93   1      3.8500000000000081      48.125000000000007      51.975000000000001
    94   1      5.7750000000000057       46.20000000000001      51.975000000000001
    95   1      5.7750000000000057      48.125000000000007      50.050000000000004
    96   1      3.8500000000000081       46.20000000000001      53.900000000000006
    97   1      3.8500000000000081      48.125000000000007      55.825000000000003
    98   1      5.7750000000000057       46.20000000000001      55.825000000000003
    99   1      5.7750000000000057      48.125000000000007      53.900000000000006
   100   1      3.8500000000000081       46.20000000000001      57.750000000000014
   101   1      3.8500000000000081      48.125000000000007      59.674999999999997
   102   1      5.7750000000000057       46.20000000000001      59.674999999999997
   103   1      5.7750000000000057      48.125000000000007      57.750000000000014
   104   1      5.7750000000000057      48.125000000000007      61.600000000000009
   105   1      3.8500000000000081      51.975000000000001      40.425000000000004
   106   1      5.7750000000000057      50.050000000000004      40.425000000000004
   107   1      5.7750000000000057      51.975000000000001      38.500000000000007
   108   1      3.8500000000000081      50.050000000000004      42.350000000000009
   109   1      3.8500000000000081      51.975000000000001      44.275000000000006
   110   1      5.7750000000000057      50.050000000000004      44.275000000000006
   111   1      5.7750000000000057      51.975000000000001      42.350000000000009
   112   1      3.8500000000000081      50.050000000000004       46.20000000000001
   113   1      3.8500000000000081      51.975000000000001      48.125000000000007
   114   1      5.7750000000000057      50.050000000000004      48.125000000000007
   115   1      5.7750000000000057      51.975000000000001       46.20000000000001
   116   1      3.8500000000000081      50.050000000000004      50.050000000000004
   117   1      3.8500000000000081      51.975000000000001      51.975000000000001
   118   1      5.7750000000000057      50.050000000000004      51.975000000000001
   119   1      5.7750000000000057      51.975000000000001      50.050000000000004
   120   1      3.8500000000000081      50.050000000000004      53.900000000000006
   121   1      3.8500000000000081      51.975000000000001      55.825000000000003
   122   1      5.7750000000000057      50.050000000000004      55.825000000000003
   123   1      5.7750000000000057      51.975000000000001      53.900000000000006
   124   1      3.8500000000000081      50.050000000000004      57.750000000000014
   125   1      3.8500000000000081      51.975000000000001      59.674999999999997
   126   1      5.7750000000000057      50.050000000000004      59.674999999999997
   127   1      5.7750000000000057      51.975000000000001      57.750000000000014
   128   1      5.7750000000000057      51.975000000000001      61.600000000000009
   129   1      3.8500000000000081      55.825000000000003      40.425000000000004
   130   1      5.7750000000000057      53.900000000000006      40.425000000000004
   131   1      5.7750000000000057      55.825000000000003      38.500000000000007
   132   1      3.8500000000000081      53.900000000000006      42.350000000000009
   133   1      3.8500000000000081      55.825000000000003      44.275000000000006
   134   1      5.7750000000000057      53.900000000000006      44.275000000000006
   135   1      5.7750000000000057      55.825000000000003      42.350000000000009
   136   1      3.8500000000000081      53.900000000000006       46.20000000000001
   137   1      3.8500000000000081      55.825000000000003      48.125000000000007
   138   1      5.7750000000000057      53.900000000000006      48.125000000000007
   139   1      5.7750000000000057      55.825000000000003       46.20000000000001
   140   1      3.8500000000000081      53.900000000000006      50.050000000000004
   141   1      3.8500000000000081      55.825000000000003      51.975000000000001
   142   1      5.7750000000000057      53.900000000000006      51.975000000000001
   143   1      5.7750000000000057      55.825000000000003      50.050000000000004
   144   1      3.8500000000000081      53.900000000000006      53.900000000000006
   145   1      3.8500000000000081      55.825000000000003      55.825000000000003
   146   1      5.7750000000000057      53.900000000000006      55.825000000000003
   147   1      5.7750000000000057      55.825000000000003      53.900000000000006
   148   1      3.8500000000000081      53.900000000000006      57.750000000000014
   149   1      3.8500000000000081      55.825000000000003      59.674999999999997
   150   1      5.7750000000000057      53.900000000000006      59.674999999999997
   151   1      5.7750000000000057      55.825000000000003      57.750000000000014
   152   1      5.7750000000000057      55.825000000000003      61.600000000000009
   153   1      3.8500000000000081      59.674999999999997      40.425000000000004
   154   1      5.7750000000000057      57.750000000000014      40.425000000000004
   155   1      5.7750000000000057      59.674999999999997      38.500000000000007
   156   1      3.8500000000000081      57.750000000000014      42.350000000000009
   157   1      3.8500000000000081      59.674999999999997      44.275000000000006
   158   1      5.7750000000000057      57.750000000000014      44.275000000000006
   159   1      5.7750000000000057      59.674999999999997      42.350000000000009
   160   1      3.8500000000000081      57.750000000000014       46.20000000000001
   161   1      3.8500000000000081      59.674999999999997      48.125000000000007
   162   1      5.7750000000000057      57.750000000000014      48.125000000000007
   163   1      5.7750000000000057      59.674999999999997       46.20000000000001
   164   1      3.8500000000000081      57.750000000000014      50.050000000000004
   165   1      3.8500000000000081      59.674999999999997      51.975000000000001
   166   1      5.7750000000000057      57.750000000000014      51.975000000000001
   167   1      5.7750000000000057      59.674999999999997      50.050000000000004
   168   1      3.8500000000000081      57.750000000000014      53.900000000000006
   169   1      3.8500000000000081      59.674999999999997      55.825000000000003
   170   1      5.7750000000000057      57.750000000000014      55.825000000000003
   171   1      5.7750000000000057      59.674999999999997      53.900000000000006
   172   1      3.8500000000000081      57.750000000000014      57.750000000000014
   173   1      3.8500000000000081      59.674999999999997      59.674999999999997
   174   1      5.7750000000000057      57.750000000000014      59.674999999999997
   175   1      5.7750000000000057      59.674999999999997      57.750000000000014
   176   1      5.7750000000000057      59.674999999999997      61.600000000000009
   177   1      5.7750000000000057      61.600000000000009      40.425000000000004
   178   1      5.7750000000000057      61.600000000000009      44.275000000000006
   179   1      5.7750000000000057      61.600000000000009      48.125000000000007
   180   1      5.7750000000000057      61.600000000000009      51.975000000000001
   181   1      5.7750000000000057      61.600000000000009      55.825000000000003
   182   1      5.7750000000000057      61.600000000000009      59.674999999999997
   183   1      9.6250000000000071      32.725000000000001      34.650000000000006
   184   1      9.6250000000000071      32.725000000000001      38.500000000000007
   185   1      9.6250000000000071      32.725000000000001      42.350000000000009
   186   1      9.6250000000000071      32.725000000000001       46.20000000000001
   187   1      9.6250000000000071      32.725000000000001      50.050000000000004
   188   1      9.6250000000000071      32.725000000000001      53.900000000000006
   189   1      9.6250000000000071      32.725000000000001      57.750000000000014
   190   1      9.6250000000000071      32.725000000000001      61.600000000000009
   191   1      9.6250000000000071      32.725000000000001      65.450000000000003
   192   1      9.6250000000000071      34.650000000000006      32.725000000000001
   193   1      7.7000000000000099      34.650000000000006      34.650000000000006
   194   1      7.7000000000000099      36.575000000000003      36.575000000000003
   195   1      9.6250000000000071      34.650000000000006      36.575000000000003
   196   1      9.6250000000000071      36.575000000000003      34.650000000000006
   197   1      7.7000000000000099      34.650000000000006      38.500000000000007
   198   1      7.7000000000000099      36.575000000000003      40.425000000000004
   199   1      9.6250000000000071      34.650000000000006      40.425000000000004
   200   1      9.6250000000000071      36.575000000000003      38.500000000000007
   201   1      7.7000000000000099      34.650000000000006      42.350000000000009
   202   1      7.7000000000000099      36.575000000000003      44.275000000000006
   203   1      9.6250000000000071      34.650000000000006      44.275000000000006
   204   1      9.6250000000000071      36.575000000000003      42.350000000000009
   205   1      7.7000000000000099      34.650000000000006       46.20000000000001
   206   1      7.7000000000000099      36.575000000000003      48.125000000000007
   207   1      9.6250000000000071      34.650000000000006      48.125000000000007
   208   1      9.6250000000000071      36.575000000000003       46.20000000000001
   209   1      7.7000000000000099      34.650000000000006      50.050000000000004
   210   1      7.7000000000000099      36.575000000000003      51.975000000000001
   211   1      9.6250000000000071      34.650000000000006      51.975000000000001
   212   1      9.6250000000000071      36.575000000000003      50.050000000000004
   213   1      7.7000000000000099      34.650000000000006      53.900000000000006
   214   1      7.7000000000000099      36.575000000000003      55.825000000000003
   215   1      9.6250000000000071      34.650000000000006      55.825000000000003
   216   1      9.6250000000000071      36.575000000000003      53.900000000000006
   217   1      7.7000000000000099      34.650000000000006      57.750000000000014
   218   1      7.7000000000000099      36.575000000000003      59.674999999999997
   219   1      9.6250000000000071      34.650000000000006      59.674999999999997
   220   1      9.6250000000000071      36.575000000000003      57.750000000000014
   221   1      7.7000000000000099      34.650000000000006      61.600000000000009
   222   1      7.7000000000000099      36.575000000000003      63.525000000000006
   223   1      9.6250000000000071      34.650000000000006      63.525000000000006
   224   1      9.6250000000000071      36.575000000000003      61.600000000000009
   225   1      7.7000000000000099      34.650000000000006      65.450000000000003
   226   1      9.6250000000000071      34.650000000000006                  67.375
   227   1      9.6250000000000071      36.575000000000003      65.450000000000003
   228   1      9.6250000000000071      38.500000000000007      32.725000000000001
   229   1      7.7000000000000099      38.500000000000007      34.650000000000006
   230   1      7.7000000000000099      40.425000000000004      36.575000000000003
   231   1      9.6250000000000071      38.500000000000007      36.575000000000003
   232   1      9.6250000000000071      40.425000000000004      34.650000000000006
   233   1      7.7000000000000099      38.500000000000007      38.500000000000007
   234   1      7.7000000000000099      40.425000000000004      40.425000000000004
   235   1      9.6250000000000071      38.500000000000007      40.425000000000004
   236   1      9.6250000000000071      40.425000000000004      38.500000000000007
   237   1      7.7000000000000099      38.500000000000007      42.350000000000009
   238   1      7.7000000000000099      40.425000000000004      44.275000000000006
   239   1      9.6250000000000071      38.500000000000007      44.275000000000006
   240   1      9.6250000000000071      40.425000000000004      42.350000000000009
   241   1      7.7000000000000099      38.500000000000007       46.20000000000001
   242   1      7.7000000000000099      40.425000000000004      48.125000000000007
   243   1      9.6250000000000071      38.500000000000007      48.125000000000007
   244   1      9.6250000000000071      40.425000000000004       46.20000000000001
   245   1      7.7000000000000099      38.500000000000007      50.050000000000004
   246   1      7.7000000000000099      40.425000000000004      51.975000000000001
   247   1      9.6250000000000071      38.500000000000007      51.975000000000001
   248   1      9.6250000000000071      40.425000000000004      50.050000000000004
   249   1      7.7000000000000099      38.500000000000007      53.900000000000006
   250   1      7.7000000000000099      40.425000000000004      55.825000000000003
   251   1      9.6250000000000071      38.500000000000007      55.825000000000003
   252   1      9.6250000000000071      40.425000000000004      53.900000000000006
   253   1      7.7000000000000099      38.500000000000007      57.750000000000014
   254   1      7.7000000000000099      40.425000000000004      59.674999999999997
   255   1      9.6250000000000071      38.500000000000007      59.674999999999997
   256   1      9.6250000000000071      40.425000000000004      57.750000000000014
   257   1      7.7000000000000099      38.500000000000007      61.600000000000009
   258   1      7.7000000000000099      40.425000000000004      63.525000000000006
   259   1      9.6250000000000071      38.500000000000007      63.525000000000006
   260   1      9.6250000000000071      40.425000000000004      61.600000000000009
   261   1      7.7000000000000099      38.500000000000007      65.450000000000003
   262   1      9.6250000000000071      38.500000000000007                  67.375
   263   1      9.6250000000000071      40.425000000000004      65.450000000000003
   264   1      9.6250000000000071      42.350000000000009      32.725000000000001
   265   1      7.7000000000000099      42.350000000000009      34.650000000000006
   266   1      7.7000000000000099      44.275000000000006      36.575000000000003
   267   1      9.6250000000000071      42.350000000000009      36.575000000000003
   268   1      9.6250000000000071      44.275000000000006      34.650000000000006
   269   1      7.7000000000000099      42.350000000000009      38.500000000000007
   270   1      7.7000000000000099      44.275000000000006      40.425000000000004
   271   1      9.6250000000000071      42.350000000000009      40.425000000000004
   272   1      9.6250000000000071      44.275000000000006      38.500000000000007
   273   1      7.7000000000000099      42.350000000000009      42.350000000000009
   274   1      7.7000000000000099      44.275000000000006      44.275000000000006
   275   1      9.6250000000000071      42.350000000000009      44.275000000000006
   276   1      9.6250000000000071      44.275000000000006      42.350000000000009
   277   1      7.7000000000000099      42.350000000000009       46.20000000000001
   278   1      7.7000000000000099      44.275000000000006      48.125000000000007
   279   1      9.6250000000000071      42.350000000000009      48.125000000000007
   280   1      9.6250000000000071      44.275000000000006       46.20000000000001
   281   1      7.7000000000000099      42.350000000000009      50.050000000000004
   282   1      7.7000000000000099      44.275000000000006      51.975000000000001
   283   1      9.6250000000000071      42.350000000000009      51.975000000000001
   284   1      9.6250000000000071      44.275000000000006      50.050000000000004
   285   1      7.7000000000000099      42.350000000000009      53.900000000000006
   286   1      7.7000000000000099      44.275000000000006      55.825000000000003
   287   1      9.6250000000000071      42.350000000000009      55.825000000000003
   288   1      9.6250000000000071      44.275000000000006      53.900000000000006
   289   1      7.7000000000000099      42.350000000000009      57.750000000000014
   290   1      7.7000000000000099      44.275000000000006      59.674999999999997
   291   1      9.6250000000000071      42.350000000000009      59.674999999999997
   292   1      9.6250000000000071      44.275000000000006      57.750000000000014
   293   1      7.7000000000000099      42.350000000000009      61.600000000000009
   294   1      7.7000000000000099      44.275000000000006      63.525000000000006
   295   1      9.6250000000000071      42.350000000000009      63.525000000000006
   296   1      9.6250000000000071      44.275000000000006      61.600000000000009
   297   1      7.7000000000000099      42.350000000000009      65.450000000000003
   298   1      9.6250000000000071      42.350000000000009                  67.375
   299   1      9.6250000000000071      44.275000000000006      65.450000000000003
   300   1      9.6250000000000071       46.20000000000001      32.725000000000001
   301   1      7.7000000000000099       46.20000000000001      34.650000000000006
   302   1      7.7000000000000099      48.125000000000007      36.575000000000003
   303   1      9.6250000000000071       46.20000000000001      36.575000000000003
   304   1      9.6250000000000071      48.125000000000007      34.650000000000006
   305   1      7.7000000000000099       46.20000000000001      38.500000000000007
   306   1      7.7000000000000099      48.125000000000007      40.425000000000004
   307   1      9.6250000000000071       46.20000000000001      40.425000000000004
   308   1      9.6250000000000071      48.125000000000007      38.500000000000007
   309   1      7.7000000000000099       46.20000000000001      42.350000000000009
   310   1      7.7000000000000099      48.125000000000007      44.275000000000006
   311   1      9.6250000000000071       46.20000000000001      44.275000000000006
   312   1      9.6250000000000071      48.125000000000007      42.350000000000009
   313   1      7.7000000000000099       46.20000000000001       46.20000000000001
   314   1      7.7000000000000099      48.125000000000007      48.125000000000007
   315   1      9.6250000000000071       46.20000000000001      48.125000000000007
   316   1      9.6250000000000071      48.125000000000007       46.20000000000001
   317   1      7.7000000000000099       46.20000000000001      50.050000000000004
   318   1      7.7000000000000099      48.125000000000007      51.975000000000001
   319   1      9.6250000000000071       46.20000000000001      51.975000000000001
   320   1      9.6250000000000071      48.125000000000007      50.050000000000004
   321   1      7.7000000000000099       46.20000000000001      53.900000000000006
   322   1      7.7000000000000099      48.125000000000007      55.825000000000003
   323   1      9.6250000000000071       46.20000000000001      55.825000000000003
   324   1      9.6250000000000071      48.125000000000007      53.900000000000006
   325   1      7.7000000000000099       46.20000000000001      57.750000000000014
   326   1      7.7000000000000099      48.125000000000007      59.674999999999997
   327   1      9.6250000000000071       46.20000000000001      59.674999999999997
   328   1      9.6250000000000071      48.125000000000007      57.750000000000014
   329   1      7.7000000000000099       46.20000000000001      61.600000000000009
   330   1      7.7000000000000099      48.125000000000007      63.525000000000006
   331   1      9.6250000000000071       46.20000000000001      63.525000000000006
   332   1      9.6250000000000071      48.125000000000007      61.600000000000009
   333   1      7.7000000000000099       46.20000000000001      65.450000000000003
   334   1      9.6250000000000071       46.20000000000001                  67.375
   335   1      9.6250000000000071      48.125000000000007      65.450000000000003
   336   1      9.6250000000000071      50.050000000000004      32.725000000000001
   337   1      7.7000000000000099      50.050000000000004      34.650000000000006
   338   1      7.7000000000000099      51.975000000000001      36.575000000000003
   339   1      9.6250000000000071      50.050000000000004      36.575000000000003
   340   1      9.6250000000000071      51.975000000000001      34.650000000000006
   341   1      7.7000000000000099      50.050000000000004      38.500000000000007
   342   1      7.7000000000000099      51.975000000000001      40.425000000000004
   343   1      9.6250000000000071      50.050000000000004      40.425000000000004
   344   1      9.6250000000000071      51.975000000000001      38.500000000000007
   345   1      7.7000000000000099      50.050000000000004      42.350000000000009
   346   1      7.7000000000000099      51.975000000000001      44.275000000000006
   347   1      9.6250000000000071      50.050000000000004      44.275000000000006
   348   1      9.6250000000000071      51.975000000000001      42.350000000000009
   349   1      7.7000000000000099      50.050000000000004       46.20000000000001
   350   1      7.7000000000000099      51.975000000000001      48.125000000000007
   351   1      9.6250000000000071      50.050000000000004      48.125000000000007
   352   1      9.6250000000000071      51.975000000000001       46.20000000000001
   353   1      7.7000000000000099      50.050000000000004      50.050000000000004
   354   1      7.7000000000000099      51.975000000000001      51.975000000000001
   355   1      9.6250000000000071      50.050000000000004      51.975000000000001
   356   1      9.6250000000000071      51.975000000000001      50.050000000000004
   357   1      7.7000000000000099      50.050000000000004      53.900000000000006
   358   1      7.7000000000000099      51.975000000000001      55.825000000000003