model_files/PdCo/PdCo_30000/PdCo_520/PdCo_520_fcc_30029_temp.data (written by ASE) 

30029 	 atoms 
2  atom types
0.0                      91  xlo xhi
0.0                      91  ylo yhi
0.0                      91  zlo zhi


Atoms 

     1   1      1.8750000000000002                  39.375      41.250000000000007
     2   1      1.8750000000000002                  39.375                      45
     3   1      1.8750000000000002                  39.375      48.750000000000007
     4   1      1.8750000000000002      41.250000000000007                  39.375
     5   1                       0                  43.125                  43.125
     6   1      1.8750000000000002      41.250000000000007                  43.125
     7   1      1.8750000000000002                  43.125      41.250000000000007
     8   1                       0                  43.125      46.875000000000007
     9   1      1.8750000000000002      41.250000000000007      46.875000000000007
    10   1      1.8750000000000002                  43.125                      45
    11   1      1.8750000000000002      41.250000000000007                  50.625
    12   1      1.8750000000000002                  43.125      48.750000000000007
    13   1      1.8750000000000002                      45                  39.375
    14   1                       0      46.875000000000007                  43.125
    15   1      1.8750000000000002                      45                  43.125
    16   1      1.8750000000000002      46.875000000000007      41.250000000000007
    17   1                       0                      45                      45
    18   1                       0      46.875000000000007      46.875000000000007
    19   1      1.8750000000000002                      45      46.875000000000007
    20   1      1.8750000000000002      46.875000000000007                      45
    21   1      1.8750000000000002                      45                  50.625
    22   1      1.8750000000000002      46.875000000000007      48.750000000000007
    23   1      1.8750000000000002      48.750000000000007                  39.375
    24   1      1.8750000000000002      48.750000000000007                  43.125
    25   1      1.8750000000000002                  50.625      41.250000000000007
    26   1      1.8750000000000002      48.750000000000007      46.875000000000007
    27   1      1.8750000000000002                  50.625                      45
    28   1      1.8750000000000002      48.750000000000007                  50.625
    29   1      1.8750000000000002                  50.625      48.750000000000007
    30   1                   5.625      30.000000000000004      31.875000000000004
    31   1                   5.625      31.875000000000004      30.000000000000004
    32   1                   5.625      30.000000000000004      35.625000000000007
    33   1                   5.625      31.875000000000004                   33.75
    34   1                   5.625      30.000000000000004                  39.375
    35   1                   5.625      31.875000000000004                    37.5
    36   1                   5.625      30.000000000000004                  43.125
    37   1                   5.625      31.875000000000004      41.250000000000007
    38   1                   5.625      30.000000000000004      46.875000000000007
    39   1                   5.625      31.875000000000004                      45
    40   1                   5.625      30.000000000000004                  50.625
    41   1                   5.625      31.875000000000004      48.750000000000007
    42   1                   5.625      30.000000000000004      54.375000000000007
    43   1                   5.625      31.875000000000004      52.500000000000007
    44   1                   5.625      30.000000000000004      58.125000000000007
    45   1                   5.625      31.875000000000004                   56.25
    46   1                   5.625      31.875000000000004      60.000000000000007
    47   1                   5.625                   33.75      31.875000000000004
    48   1                   5.625      35.625000000000007      30.000000000000004
    49   1      3.7500000000000004                   33.75                   33.75
    50   1      3.7500000000000004      35.625000000000007      35.625000000000007
    51   1                   5.625                   33.75      35.625000000000007
    52   1                   5.625      35.625000000000007                   33.75
    53   1      3.7500000000000004                   33.75                    37.5
    54   1      3.7500000000000004      35.625000000000007                  39.375
    55   1                   5.625                   33.75                  39.375
    56   1                   5.625      35.625000000000007                    37.5
    57   1      3.7500000000000004                   33.75      41.250000000000007
    58   1      3.7500000000000004      35.625000000000007                  43.125
    59   1                   5.625                   33.75                  43.125
    60   1                   5.625      35.625000000000007      41.250000000000007
    61   1      3.7500000000000004                   33.75                      45
    62   1      3.7500000000000004      35.625000000000007      46.875000000000007
    63   1                   5.625                   33.75      46.875000000000007
    64   1                   5.625      35.625000000000007                      45
    65   1      3.7500000000000004                   33.75      48.750000000000007
    66   1      3.7500000000000004      35.625000000000007                  50.625
    67   1                   5.625                   33.75                  50.625
    68   1                   5.625      35.625000000000007      48.750000000000007
    69   1      3.7500000000000004                   33.75      52.500000000000007
    70   1      3.7500000000000004      35.625000000000007      54.375000000000007
    71   1                   5.625                   33.75      54.375000000000007
    72   1                   5.625      35.625000000000007      52.500000000000007
    73   1      3.7500000000000004                   33.75                   56.25
    74   1                   5.625                   33.75      58.125000000000007
    75   1                   5.625      35.625000000000007                   56.25
    76   1                   5.625      35.625000000000007      60.000000000000007
    77   1                   5.625                    37.5      31.875000000000004
    78   1                   5.625                  39.375      30.000000000000004
    79   1      3.7500000000000004                    37.5                   33.75
    80   1      3.7500000000000004                  39.375      35.625000000000007
    81   1                   5.625                    37.5      35.625000000000007
    82   1                   5.625                  39.375                   33.75
    83   1      3.7500000000000004                    37.5                    37.5
    84   1      3.7500000000000004                  39.375                  39.375
    85   1                   5.625                    37.5                  39.375
    86   1                   5.625                  39.375                    37.5
    87   1      3.7500000000000004                    37.5      41.250000000000007
    88   1      3.7500000000000004                  39.375                  43.125
    89   1                   5.625                    37.5                  43.125
    90   1                   5.625                  39.375      41.250000000000007
    91   1      3.7500000000000004                    37.5                      45
    92   1      3.7500000000000004                  39.375      46.875000000000007
    93   1                   5.625                    37.5      46.875000000000007
    94   1                   5.625                  39.375                      45
    95   1      3.7500000000000004                    37.5      48.750000000000007
    96   1      3.7500000000000004                  39.375                  50.625
    97   1                   5.625                    37.5                  50.625
    98   1                   5.625                  39.375      48.750000000000007
    99   1      3.7500000000000004                    37.5      52.500000000000007
   100   1      3.7500000000000004                  39.375      54.375000000000007
   101   1                   5.625                    37.5      54.375000000000007
   102   1                   5.625                  39.375      52.500000000000007
   103   1      3.7500000000000004                    37.5                   56.25
   104   1                   5.625                    37.5      58.125000000000007
   105   1                   5.625                  39.375                   56.25
   106   1                   5.625                  39.375      60.000000000000007
   107   1                   5.625      41.250000000000007      31.875000000000004
   108   1                   5.625                  43.125      30.000000000000004
   109   1      3.7500000000000004      41.250000000000007                   33.75
   110   1      3.7500000000000004                  43.125      35.625000000000007
   111   1                   5.625      41.250000000000007      35.625000000000007
   112   1                   5.625                  43.125                   33.75
   113   1      3.7500000000000004      41.250000000000007                    37.5
   114   1      3.7500000000000004                  43.125                  39.375
   115   1                   5.625      41.250000000000007                  39.375
   116   1                   5.625                  43.125                    37.5
   117   1      3.7500000000000004      41.250000000000007      41.250000000000007
   118   1      3.7500000000000004                  43.125                  43.125
   119   1                   5.625      41.250000000000007                  43.125
   120   1                   5.625                  43.125      41.250000000000007
   121   1      3.7500000000000004      41.250000000000007                      45
   122   1      3.7500000000000004                  43.125      46.875000000000007
   123   1                   5.625      41.250000000000007      46.875000000000007
   124   1                   5.625                  43.125                      45
   125   1      3.7500000000000004      41.250000000000007      48.750000000000007
   126   1      3.7500000000000004                  43.125                  50.625
   127   1                   5.625      41.250000000000007                  50.625
   128   1                   5.625                  43.125      48.750000000000007
   129   1      3.7500000000000004      41.250000000000007      52.500000000000007
   130   1      3.7500000000000004                  43.125      54.375000000000007
   131   1                   5.625      41.250000000000007      54.375000000000007
   132   1                   5.625                  43.125      52.500000000000007
   133   1      3.7500000000000004      41.250000000000007                   56.25
   134   1                   5.625      41.250000000000007      58.125000000000007
   135   1                   5.625                  43.125                   56.25
   136   1                   5.625                  43.125      60.000000000000007
   137   1                   5.625                      45      31.875000000000004
   138   1                   5.625      46.875000000000007      30.000000000000004
   139   1      3.7500000000000004                      45                   33.75
   140   1      3.7500000000000004      46.875000000000007      35.625000000000007
   141   1                   5.625                      45      35.625000000000007
   142   1                   5.625      46.875000000000007                   33.75
   143   1      3.7500000000000004                      45                    37.5
   144   1      3.7500000000000004      46.875000000000007                  39.375
   145   1                   5.625                      45                  39.375
   146   1                   5.625      46.875000000000007                    37.5
   147   1      3.7500000000000004                      45      41.250000000000007
   148   1      3.7500000000000004      46.875000000000007                  43.125
   149   1                   5.625                      45                  43.125
   150   1                   5.625      46.875000000000007      41.250000000000007
   151   1      3.7500000000000004                      45                      45
   152   1      3.7500000000000004      46.875000000000007      46.875000000000007
   153   1                   5.625                      45      46.875000000000007
   154   1                   5.625      46.875000000000007                      45
   155   1      3.7500000000000004                      45      48.750000000000007
   156   1      3.7500000000000004      46.875000000000007                  50.625
   157   1                   5.625                      45                  50.625
   158   1                   5.625      46.875000000000007      48.750000000000007
   159   1      3.7500000000000004                      45      52.500000000000007
   160   1      3.7500000000000004      46.875000000000007      54.375000000000007
   161   1                   5.625                      45      54.375000000000007
   162   1                   5.625      46.875000000000007      52.500000000000007
   163   1      3.7500000000000004                      45                   56.25
   164   1                   5.625                      45      58.125000000000007
   165   1                   5.625      46.875000000000007                   56.25
   166   1                   5.625      46.875000000000007      60.000000000000007
   167   1                   5.625      48.750000000000007      31.875000000000004
   168   1                   5.625                  50.625      30.000000000000004
   169   1      3.7500000000000004      48.750000000000007                   33.75
   170   1      3.7500000000000004                  50.625      35.625000000000007
   171   1                   5.625      48.750000000000007      35.625000000000007
   172   1                   5.625                  50.625                   33.75
   173   1      3.7500000000000004      48.750000000000007                    37.5
   174   1      3.7500000000000004                  50.625                  39.375
   175   1                   5.625      48.750000000000007                  39.375
   176   1                   5.625                  50.625                    37.5
   177   1      3.7500000000000004      48.750000000000007      41.250000000000007
   178   1      3.7500000000000004                  50.625                  43.125
   179   1                   5.625      48.750000000000007                  43.125
   180   1                   5.625                  50.625      41.250000000000007
   181   1      3.7500000000000004      48.750000000000007                      45
   182   1      3.7500000000000004                  50.625      46.875000000000007
   183   1                   5.625      48.750000000000007      46.875000000000007
   184   1                   5.625                  50.625                      45
   185   1      3.7500000000000004      48.750000000000007      48.750000000000007
   186   1      3.7500000000000004                  50.625                  50.625
   187   1                   5.625      48.750000000000007                  50.625
   188   1                   5.625                  50.625      48.750000000000007
   189   1      3.7500000000000004      48.750000000000007      52.500000000000007
   190   1      3.7500000000000004                  50.625      54.375000000000007
   191   1                   5.625      48.750000000000007      54.375000000000007
   192   1                   5.625                  50.625      52.500000000000007
   193   1      3.7500000000000004      48.750000000000007                   56.25
   194   1                   5.625      48.750000000000007      58.125000000000007
   195   1                   5.625                  50.625                   56.25
   196   1                   5.625                  50.625      60.000000000000007
   197   1                   5.625      52.500000000000007      31.875000000000004
   198   1                   5.625      54.375000000000007      30.000000000000004
   199   1      3.7500000000000004      52.500000000000007                   33.75
   200   1      3.7500000000000004      54.375000000000007      35.625000000000007
   201   1                   5.625      52.500000000000007      35.625000000000007
   202   1                   5.625      54.375000000000007                   33.75
   203   1      3.7500000000000004      52.500000000000007                    37.5
   204   1      3.7500000000000004      54.375000000000007                  39.375
   205   1                   5.625      52.500000000000007                  39.375
   206   1                   5.625      54.375000000000007                    37.5
   207   1      3.7500000000000004      52.500000000000007      41.250000000000007
   208   1      3.7500000000000004      54.375000000000007                  43.125
   209   1                   5.625      52.500000000000007                  43.125
   210   1                   5.625      54.375000000000007      41.250000000000007
   211   1      3.7500000000000004      52.500000000000007                      45
   212   1      3.7500000000000004      54.375000000000007      46.875000000000007
   213   1                   5.625      52.500000000000007      46.875000000000007
   214   1                   5.625      54.375000000000007                      45
   215   1      3.7500000000000004      52.500000000000007      48.750000000000007
   216   1      3.7500000000000004      54.375000000000007                  50.625
   217   1                   5.625      52.500000000000007                  50.625
   218   1                   5.625      54.375000000000007      48.750000000000007
   219   1      3.7500000000000004      52.500000000000007      52.500000000000007
   220   1      3.7500000000000004      54.375000000000007      54.375000000000007
   221   1                   5.625      52.500000000000007      54.375000000000007
   222   1                   5.625      54.375000000000007      52.500000000000007
   223   1      3.7500000000000004      52.500000000000007                   56.25
   224   1                   5.625      52.500000000000007      58.125000000000007
   225   1                   5.625      54.375000000000007                   56.25
   226   1                   5.625      54.375000000000007      60.000000000000007
   227   1                   5.625                   56.25      31.875000000000004
   228   1                   5.625      58.125000000000007      30.000000000000004
   229   1      3.7500000000000004                   56.25                   33.75
   230   1                   5.625                   56.25      35.625000000000007
   231   1                   5.625      58.125000000000007                   33.75
   232   1      3.7500000000000004                   56.25                    37.5
   233   1                   5.625                   56.25                  39.375
   234   1                   5.625      58.125000000000007                    37.5
   235   1      3.7500000000000004                   56.25      41.250000000000007
   236   1                   5.625                   56.25                  43.125
   237   1                   5.625      58.125000000000007      41.250000000000007
   238   1      3.7500000000000004                   56.25                      45
   239   1                   5.625                   56.25      46.875000000000007
   240   1                   5.625      58.125000000000007                      45
   241   1      3.7500000000000004                   56.25      48.750000000000007
   242   1                   5.625                   56.25                  50.625
   243   1                   5.625      58.125000000000007      48.750000000000007
   244   1      3.7500000000000004                   56.25      52.500000000000007
   245   1                   5.625                   56.25      54.375000000000007
   246   1                   5.625      58.125000000000007      52.500000000000007
   247   1      3.7500000000000004                   56.25                   56.25
   248   1                   5.625                   56.25      58.125000000000007
   249   1                   5.625      58.125000000000007                   56.25
   250   1                   5.625      58.125000000000007      60.000000000000007
   251   1                   5.625      60.000000000000007      31.875000000000004
   252   1                   5.625      60.000000000000007      35.625000000000007
   253   1                   5.625      60.000000000000007                  39.375
   254   1                   5.625      60.000000000000007                  43.125
   255   1                   5.625      60.000000000000007      46.875000000000007
   256   1                   5.625      60.000000000000007                  50.625
   257   1                   5.625      60.000000000000007      54.375000000000007
   258   1                   5.625      60.000000000000007      58.125000000000007
   259   1                   9.375      20.625000000000004                    22.5
   260   1                   9.375      20.625000000000004      26.250000000000004
   261   1                   9.375      20.625000000000004      30.000000000000004
   262   1                   9.375      20.625000000000004                   33.75
   263   1                   9.375      20.625000000000004                    37.5
   264   1                   9.375      20.625000000000004      41.250000000000007
   265   1                   9.375      20.625000000000004                      45
   266   1                   9.375      20.625000000000004      48.750000000000007
   267   1                   9.375      20.625000000000004      52.500000000000007
   268   1                   9.375      20.625000000000004                   56.25
   269   1                   9.375      20.625000000000004      60.000000000000007
   270   1                   9.375      20.625000000000004      63.750000000000007
   271   1                   9.375      20.625000000000004                    67.5
   272   1                   9.375                    22.5      20.625000000000004
   273   1      7.5000000000000009      24.375000000000004      24.375000000000004
   274   1                   9.375                    22.5      24.375000000000004
   275   1                   9.375      24.375000000000004                    22.5
   276   1      7.5000000000000009      24.375000000000004                  28.125
   277   1                   9.375                    22.5                  28.125
   278   1                   9.375      24.375000000000004      26.250000000000004
   279   1      7.5000000000000009      24.375000000000004      31.875000000000004
   280   1                   9.375                    22.5      31.875000000000004
   281   1                   9.375      24.375000000000004      30.000000000000004
   282   1      7.5000000000000009      24.375000000000004      35.625000000000007
   283   1                   9.375                    22.5      35.625000000000007
   284   1                   9.375      24.375000000000004                   33.75
   285   1      7.5000000000000009      24.375000000000004                  39.375
   286   1                   9.375                    22.5                  39.375
   287   1                   9.375      24.375000000000004                    37.5
   288   1      7.5000000000000009      24.375000000000004                  43.125
   289   1                   9.375                    22.5                  43.125
   290   1                   9.375      24.375000000000004      41.250000000000007
   291   1      7.5000000000000009      24.375000000000004      46.875000000000007
   292   1                   9.375                    22.5      46.875000000000007
   293   1                   9.375      24.375000000000004                      45
   294   1      7.5000000000000009      24.375000000000004                  50.625
   295   1                   9.375                    22.5                  50.625
   296   1                   9.375      24.375000000000004      48.750000000000007
   297   1      7.5000000000000009      24.375000000000004      54.375000000000007
   298   1                   9.375                    22.5      54.375000000000007
   299   1                   9.375      24.375000000000004      52.500000000000007
   300   1      7.5000000000000009      24.375000000000004      58.125000000000007
   301   1                   9.375                    22.5      58.125000000000007
   302   1                   9.375      24.375000000000004                   56.25
   303   1      7.5000000000000009      24.375000000000004                  61.875
   304   1                   9.375                    22.5                  61.875
   305   1                   9.375      24.375000000000004      60.000000000000007
   306   1      7.5000000000000009      24.375000000000004      65.625000000000014
   307   1                   9.375                    22.5      65.625000000000014
   308   1                   9.375      24.375000000000004      63.750000000000007
   309   1                   9.375                    22.5                  69.375
   310   1                   9.375      24.375000000000004                    67.5
   311   1                   9.375      26.250000000000004      20.625000000000004
   312   1      7.5000000000000009                  28.125      24.375000000000004
   313   1                   9.375      26.250000000000004      24.375000000000004
   314   1                   9.375                  28.125                    22.5
   315   1      7.5000000000000009      26.250000000000004      26.250000000000004
   316   1      7.5000000000000009                  28.125                  28.125
   317   1                   9.375      26.250000000000004                  28.125
   318   1                   9.375                  28.125      26.250000000000004
   319   1      7.5000000000000009      26.250000000000004      30.000000000000004
   320   1      7.5000000000000009                  28.125      31.875000000000004
   321   1                   9.375      26.250000000000004      31.875000000000004
   322   1                   9.375                  28.125      30.000000000000004
   323   1      7.5000000000000009      26.250000000000004                   33.75
   324   1      7.5000000000000009                  28.125      35.625000000000007
   325   1                   9.375      26.250000000000004      35.625000000000007
   326   1                   9.375                  28.125                   33.75
   327   1      7.5000000000000009      26.250000000000004                    37.5
   328   1      7.5000000000000009                  28.125                  39.375
   329   1                   9.375      26.250000000000004                  39.375
   330   1                   9.375                  28.125                    37.5
   331   1      7.5000000000000009      26.250000000000004      41.250000000000007
   332   1      7.5000000000000009                  28.125                  43.125
   333   1                   9.375      26.250000000000004                  43.125
   334   1                   9.375                  28.125      41.250000000000007
   335   1      7.5000000000000009      26.250000000000004                      45
   336   1      7.5000000000000009                  28.125      46.875000000000007
   337   1                   9.375      26.250000000000004      46.875000000000007
   338   1                   9.375                  28.125                      45
   339   1      7.5000000000000009      26.250000000000004      48.750000000000007
   340   1      7.5000000000000009                  28.125                  50.625
   341   1                   9.375      26.250000000000004                  50.625
   342   1                   9.375                  28.125      48.750000000000007
   343   1      7.5000000000000009      26.250000000000004      52.500000000000007
   344   1      7.5000000000000009                  28.125      54.375000000000007
   345   1                   9.375      26.250000000000004      54.375000000000007
   346   1                   9.375                  28.125      52.500000000000007
   347   1      7.5000000000000009      26.250000000000004                   56.25
   348   1      7.5000000000000009                  28.125      58.125000000000007
   349   1                   9.375      26.250000000000004      58.125000000000007
   350   1                   9.375                  28.125                   56.25
   351   1      7.5000000000000009      26.250000000000004      60.000000000000007
   352   1      7.5000000000000009                  28.125                  61.875
   353   1                   9.375      26.250000000000004                  61.875
   354   1                   9.375                  28.125      60.000000000000007
   355   1      7.5000000000000009      26.250000000000004      63.750000000000007
   356   1      7.5000000000000009                  28.125      65.625000000000014
   357   1                   9.375      26.250000000000004      65.625000000000014
   358   1                   9.375                  28.125      63.750000000000007