LAMMPS data file via write_data, version 30 Nov 2020, timestep = 0

30329 atoms
3 atom types

0 91 xlo xhi
0 91 ylo yhi
0 91 zlo zhi

Masses

1 63.546
2 55.845
3 58.6934

Atoms # atomic

1 2 7.105427357601002e-15 42.960000000000015 44.750000000000014 0 0 0
2 1 7.105427357601002e-15 44.750000000000014 42.960000000000015 0 0 0
5 1 3.580000000000006 34.01000000000001 42.960000000000015 0 0 0
6 1 3.580000000000006 35.80000000000001 41.170000000000016 0 0 0
8 1 3.580000000000006 35.80000000000001 44.750000000000014 0 0 0
10 3 3.580000000000006 37.59000000000001 39.38000000000002 0 0 0
11 1 3.580000000000006 39.38000000000002 37.59000000000001 0 0 0
12 1 1.7900000000000063 39.38000000000002 42.960000000000015 0 0 0
13 1 3.580000000000006 37.59000000000001 42.960000000000015 0 0 0
14 1 3.580000000000006 39.38000000000002 41.170000000000016 0 0 0
15 1 1.7900000000000063 37.59000000000001 44.750000000000014 0 0 0
18 1 3.580000000000006 39.38000000000002 44.750000000000014 0 0 0
22 1 3.580000000000006 41.170000000000016 35.80000000000001 0 0 0
23 1 3.580000000000006 42.960000000000015 34.01000000000001 0 0 0
24 1 1.7900000000000063 42.960000000000015 39.38000000000002 0 0 0
25 1 3.580000000000006 41.170000000000016 39.38000000000002 0 0 0
26 1 3.580000000000006 42.960000000000015 37.59000000000001 0 0 0
27 1 1.7900000000000063 41.170000000000016 41.170000000000016 0 0 0
28 2 1.7900000000000063 42.960000000000015 42.960000000000015 0 0 0
29 1 3.580000000000006 41.170000000000016 42.960000000000015 0 0 0
30 1 3.580000000000006 42.960000000000015 41.170000000000016 0 0 0
31 1 1.7900000000000063 41.170000000000016 44.750000000000014 0 0 0
34 3 3.580000000000006 42.960000000000015 44.750000000000014 0 0 0
42 1 3.580000000000006 44.750000000000014 35.80000000000001 0 0 0
44 1 1.7900000000000063 44.750000000000014 37.59000000000001 0 0 0
46 1 3.580000000000006 44.750000000000014 39.38000000000002 0 0 0
48 1 1.7900000000000063 44.750000000000014 41.170000000000016 0 0 0
50 1 3.580000000000006 44.750000000000014 42.960000000000015 0 0 0
52 2 1.7900000000000063 44.750000000000014 44.750000000000014 0 0 0
90 3 7.160000000000004 25.06000000000001 44.750000000000014 0 0 0
91 2 7.160000000000004 26.850000000000012 39.38000000000002 0 0 0
92 3 7.160000000000004 28.64000000000001 37.59000000000001 0 0 0
93 1 7.160000000000004 26.850000000000012 42.960000000000015 0 0 0
94 3 7.160000000000004 28.64000000000001 41.170000000000016 0 0 0
96 3 7.160000000000004 28.64000000000001 44.750000000000014 0 0 0
100 1 7.160000000000004 30.43000000000001 32.22000000000001 0 0 0
101 2 7.160000000000004 32.22000000000001 30.43000000000001 0 0 0
102 1 7.160000000000004 30.43000000000001 35.80000000000001 0 0 0
103 2 7.160000000000004 32.22000000000001 34.01000000000001 0 0 0
104 3 5.3700000000000125 32.22000000000001 39.38000000000002 0 0 0
105 3 7.160000000000004 30.43000000000001 39.38000000000002 0 0 0
106 3 7.160000000000004 32.22000000000001 37.59000000000001 0 0 0
107 1 5.3700000000000125 30.43000000000001 41.170000000000016 0 0 0
108 3 5.3700000000000125 32.22000000000001 42.960000000000015 0 0 0
109 1 7.160000000000004 30.43000000000001 42.960000000000015 0 0 0
110 1 7.160000000000004 32.22000000000001 41.170000000000016 0 0 0
111 1 5.3700000000000125 30.43000000000001 44.750000000000014 0 0 0
114 2 7.160000000000004 32.22000000000001 44.750000000000014 0 0 0
124 1 7.160000000000004 34.01000000000001 32.22000000000001 0 0 0
125 1 7.160000000000004 35.80000000000001 30.43000000000001 0 0 0
126 1 5.3700000000000125 34.01000000000001 34.01000000000001 0 0 0
127 3 5.3700000000000125 35.80000000000001 35.80000000000001 0 0 0
128 1 7.160000000000004 34.01000000000001 35.80000000000001 0 0 0
129 2 7.160000000000004 35.80000000000001 34.01000000000001 0 0 0
130 1 5.3700000000000125 34.01000000000001 37.59000000000001 0 0 0
131 1 5.3700000000000125 35.80000000000001 39.38000000000002 0 0 0
132 3 7.160000000000004 34.01000000000001 39.38000000000002 0 0 0
133 2 7.160000000000004 35.80000000000001 37.59000000000001 0 0 0
134 2 5.3700000000000125 34.01000000000001 41.170000000000016 0 0 0
135 1 5.3700000000000125 35.80000000000001 42.960000000000015 0 0 0
136 3 7.160000000000004 34.01000000000001 42.960000000000015 0 0 0
137 2 7.160000000000004 35.80000000000001 41.170000000000016 0 0 0
138 1 5.3700000000000125 34.01000000000001 44.750000000000014 0 0 0
141 1 7.160000000000004 35.80000000000001 44.750000000000014 0 0 0
154 1 7.160000000000004 37.59000000000001 28.64000000000001 0 0 0
155 1 7.160000000000004 39.38000000000002 26.850000000000012 0 0 0
156 2 5.3700000000000125 39.38000000000002 32.22000000000001 0 0 0
157 1 7.160000000000004 37.59000000000001 32.22000000000001 0 0 0
158 2 7.160000000000004 39.38000000000002 30.43000000000001 0 0 0
159 1 5.3700000000000125 37.59000000000001 34.01000000000001 0 0 0
160 1 5.3700000000000125 39.38000000000002 35.80000000000001 0 0 0
161 1 7.160000000000004 37.59000000000001 35.80000000000001 0 0 0
162 1 7.160000000000004 39.38000000000002 34.01000000000001 0 0 0
163 1 5.3700000000000125 37.59000000000001 37.59000000000001 0 0 0
164 1 5.3700000000000125 39.38000000000002 39.38000000000002 0 0 0
165 1 7.160000000000004 37.59000000000001 39.38000000000002 0 0 0
166 1 7.160000000000004 39.38000000000002 37.59000000000001 0 0 0
167 2 5.3700000000000125 37.59000000000001 41.170000000000016 0 0 0
168 3 5.3700000000000125 39.38000000000002 42.960000000000015 0 0 0
169 2 7.160000000000004 37.59000000000001 42.960000000000015 0 0 0
170 1 7.160000000000004 39.38000000000002 41.170000000000016 0 0 0
171 1 5.3700000000000125 37.59000000000001 44.750000000000014 0 0 0
174 1 7.160000000000004 39.38000000000002 44.750000000000014 0 0 0
190 2 7.160000000000004 41.170000000000016 28.64000000000001 0 0 0
191 1 7.160000000000004 42.960000000000015 26.850000000000012 0 0 0
192 1 5.3700000000000125 41.170000000000016 30.43000000000001 0 0 0
193 1 5.3700000000000125 42.960000000000015 32.22000000000001 0 0 0
194 3 7.160000000000004 41.170000000000016 32.22000000000001 0 0 0
195 1 7.160000000000004 42.960000000000015 30.43000000000001 0 0 0
196 1 5.3700000000000125 41.170000000000016 34.01000000000001 0 0 0
197 2 5.3700000000000125 42.960000000000015 35.80000000000001 0 0 0
198 2 7.160000000000004 41.170000000000016 35.80000000000001 0 0 0
199 1 7.160000000000004 42.960000000000015 34.01000000000001 0 0 0
200 1 5.3700000000000125 41.170000000000016 37.59000000000001 0 0 0
201 1 5.3700000000000125 42.960000000000015 39.38000000000002 0 0 0
202 1 7.160000000000004 41.170000000000016 39.38000000000002 0 0 0
203 1 7.160000000000004 42.960000000000015 37.59000000000001 0 0 0
204 1 5.3700000000000125 41.170000000000016 41.170000000000016 0 0 0
205 2 5.3700000000000125 42.960000000000015 42.960000000000015 0 0 0
206 3 7.160000000000004 41.170000000000016 42.960000000000015 0 0 0
207 1 7.160000000000004 42.960000000000015 41.170000000000016 0 0 0
208 1 5.3700000000000125 41.170000000000016 44.750000000000014 0 0 0
211 1 7.160000000000004 42.960000000000015 44.750000000000014 0 0 0
228 3 7.160000000000004 44.750000000000014 25.06000000000001 0 0 0
229 2 7.160000000000004 44.750000000000014 28.64000000000001 0 0 0
231 1 5.3700000000000125 44.750000000000014 30.43000000000001 0 0 0
233 1 7.160000000000004 44.750000000000014 32.22000000000001 0 0 0
235 2 5.3700000000000125 44.750000000000014 34.01000000000001 0 0 0
237 1 7.160000000000004 44.750000000000014 35.80000000000001 0 0 0
239 2 5.3700000000000125 44.750000000000014 37.59000000000001 0 0 0
241 1 7.160000000000004 44.750000000000014 39.38000000000002 0 0 0
243 1 5.3700000000000125 44.750000000000014 41.170000000000016 0 0 0
245 3 7.160000000000004 44.750000000000014 42.960000000000015 0 0 0
247 1 5.3700000000000125 44.750000000000014 44.750000000000014 0 0 0
387 3 10.740000000000009 16.110000000000007 42.960000000000015 0 0 0
388 1 10.740000000000009 17.900000000000006 41.170000000000016 0 0 0
390 1 10.740000000000009 17.900000000000006 44.750000000000014 0 0 0
392 2 10.740000000000009 19.69000000000001 35.80000000000001 0 0 0
393 1 10.740000000000009 21.480000000000008 34.01000000000001 0 0 0
394 1 10.740000000000009 19.69000000000001 39.38000000000002 0 0 0
395 1 10.740000000000009 21.480000000000008 37.59000000000001 0 0 0
396 3 8.950000000000012 21.480000000000008 42.960000000000015 0 0 0
397 3 10.740000000000009 19.69000000000001 42.960000000000015 0 0 0
398 2 10.740000000000009 21.480000000000008 41.170000000000016 0 0 0
399 3 8.950000000000012 19.69000000000001 44.750000000000014 0 0 0
402 1 10.740000000000009 21.480000000000008 44.750000000000014 0 0 0
408 3 10.740000000000009 23.27000000000001 28.64000000000001 0 0 0
409 1 10.740000000000009 25.06000000000001 26.850000000000012 0 0 0
410 3 10.740000000000009 23.27000000000001 32.22000000000001 0 0 0
411 1 10.740000000000009 25.06000000000001 30.43000000000001 0 0 0
412 1 8.950000000000012 25.06000000000001 35.80000000000001 0 0 0
413 2 10.740000000000009 23.27000000000001 35.80000000000001 0 0 0
414 1 10.740000000000009 25.06000000000001 34.01000000000001 0 0 0
415 2 8.950000000000012 23.27000000000001 37.59000000000001 0 0 0
416 1 8.950000000000012 25.06000000000001 39.38000000000002 0 0 0
417 1 10.740000000000009 23.27000000000001 39.38000000000002 0 0 0
418 1 10.740000000000009 25.06000000000001 37.59000000000001 0 0 0
419 1 8.950000000000012 23.27000000000001 41.170000000000016 0 0 0
420 3 8.950000000000012 25.06000000000001 42.960000000000015 0 0 0
421 1 10.740000000000009 23.27000000000001 42.960000000000015 0 0 0
422 1 10.740000000000009 25.06000000000001 41.170000000000016 0 0 0
423 1 8.950000000000012 23.27000000000001 44.750000000000014 0 0 0
426 1 10.740000000000009 25.06000000000001 44.750000000000014 0 0 0
440 1 10.740000000000009 26.850000000000012 25.06000000000001 0 0 0
441 1 10.740000000000009 28.64000000000001 23.27000000000001 0 0 0
442 3 8.950000000000012 28.64000000000001 28.64000000000001 0 0 0
443 2 10.740000000000009 26.850000000000012 28.64000000000001 0 0 0
444 1 10.740000000000009 28.64000000000001 26.850000000000012 0 0 0
445 1 8.950000000000012 26.850000000000012 30.43000000000001 0 0 0
446 1 8.950000000000012 28.64000000000001 32.22000000000001 0 0 0
447 1 10.740000000000009 26.850000000000012 32.22000000000001 0 0 0
448 2 10.740000000000009 28.64000000000001 30.43000000000001 0 0 0
449 1 8.950000000000012 26.850000000000012 34.01000000000001 0 0 0
450 3 8.950000000000012 28.64000000000001 35.80000000000001 0 0 0
451 3 10.740000000000009 26.850000000000012 35.80000000000001 0 0 0
452 2 10.740000000000009 28.64000000000001 34.01000000000001 0 0 0
453 1 8.950000000000012 26.850000000000012 37.59000000000001 0 0 0
454 2 8.950000000000012 28.64000000000001 39.38000000000002 0 0 0
455 1 10.740000000000009 26.850000000000012 39.38000000000002 0 0 0
456 1 10.740000000000009 28.64000000000001 37.59000000000001 0 0 0
457 1 8.950000000000012 26.850000000000012 41.170000000000016 0 0 0
458 3 8.950000000000012 28.64000000000001 42.960000000000015 0 0 0
459 1 10.740000000000009 26.850000000000012 42.960000000000015 0 0 0
460 1 10.740000000000009 28.64000000000001 41.170000000000016 0 0 0
461 1 8.950000000000012 26.850000000000012 44.750000000000014 0 0 0
464 3 10.740000000000009 28.64000000000001 44.750000000000014 0 0 0
484 3 10.740000000000009 30.43000000000001 25.06000000000001 0 0 0
485 1 10.740000000000009 32.22000000000001 23.27000000000001 0 0 0
486 3 8.950000000000012 30.43000000000001 26.850000000000012 0 0 0
487 1 8.950000000000012 32.22000000000001 28.64000000000001 0 0 0
488 3 10.740000000000009 30.43000000000001 28.64000000000001 0 0 0
489 1 10.740000000000009 32.22000000000001 26.850000000000012 0 0 0
490 3 8.950000000000012 30.43000000000001 30.43000000000001 0 0 0
491 2 8.950000000000012 32.22000000000001 32.22000000000001 0 0 0
492 3 10.740000000000009 30.43000000000001 32.22000000000001 0 0 0
493 1 10.740000000000009 32.22000000000001 30.43000000000001 0 0 0
494 1 8.950000000000012 30.43000000000001 34.01000000000001 0 0 0
495 1 8.950000000000012 32.22000000000001 35.80000000000001 0 0 0
496 1 10.740000000000009 30.43000000000001 35.80000000000001 0 0 0
497 1 10.740000000000009 32.22000000000001 34.01000000000001 0 0 0
498 2 8.950000000000012 30.43000000000001 37.59000000000001 0 0 0
499 3 8.950000000000012 32.22000000000001 39.38000000000002 0 0 0
500 1 10.740000000000009 30.43000000000001 39.38000000000002 0 0 0
501 1 10.740000000000009 32.22000000000001 37.59000000000001 0 0 0
502 1 8.950000000000012 30.43000000000001 41.170000000000016 0 0 0
503 3 8.950000000000012 32.22000000000001 42.960000000000015 0 0 0
504 2 10.740000000000009 30.43000000000001 42.960000000000015 0 0 0
505 3 10.740000000000009 32.22000000000001 41.170000000000016 0 0 0
506 1 8.950000000000012 30.43000000000001 44.750000000000014 0 0 0
509 1 10.740000000000009 32.22000000000001 44.750000000000014 0 0 0
530 1 10.740000000000009 34.01000000000001 21.480000000000008 0 0 0
531 1 10.740000000000009 35.80000000000001 19.69000000000001 0 0 0
532 2 8.950000000000012 35.80000000000001 25.06000000000001 0 0 0
533 1 10.740000000000009 34.01000000000001 25.06000000000001 0 0 0
534 1 10.740000000000009 35.80000000000001 23.27000000000001 0 0 0
535 2 8.950000000000012 34.01000000000001 26.850000000000012 0 0 0
536 3 8.950000000000012 35.80000000000001 28.64000000000001 0 0 0
537 1 10.740000000000009 34.01000000000001 28.64000000000001 0 0 0
538 1 10.740000000000009 35.80000000000001 26.850000000000012 0 0 0
539 1 8.950000000000012 34.01000000000001 30.43000000000001 0 0 0
540 2 8.950000000000012 35.80000000000001 32.22000000000001 0 0 0
541 1 10.740000000000009 34.01000000000001 32.22000000000001 0 0 0
542 3 10.740000000000009 35.80000000000001 30.43000000000001 0 0 0
543 1 8.950000000000012 34.01000000000001 34.01000000000001 0 0 0
544 1 8.950000000000012 35.80000000000001 35.80000000000001 0 0 0
545 1 10.740000000000009 34.01000000000001 35.80000000000001 0 0 0
546 1 10.740000000000009 35.80000000000001 34.01000000000001 0 0 0
547 2 8.950000000000012 34.01000000000001 37.59000000000001 0 0 0
548 2 8.950000000000012 35.80000000000001 39.38000000000002 0 0 0
549 1 10.740000000000009 34.01000000000001 39.38000000000002 0 0 0
550 3 10.740000000000009 35.80000000000001 37.59000000000001 0 0 0
551 1 8.950000000000012 34.01000000000001 41.170000000000016 0 0 0
552 3 8.950000000000012 35.80000000000001 42.960000000000015 0 0 0
553 2 10.740000000000009 34.01000000000001 42.960000000000015 0 0 0
554 1 10.740000000000009 35.80000000000001 41.170000000000016 0 0 0
555 3 8.950000000000012 34.01000000000001 44.750000000000014 0 0 0
558 1 10.740000000000009 35.80000000000001 44.750000000000014 0 0 0
582 2 10.740000000000009 37.59000000000001 21.480000000000008 0 0 0
583 1 10.740000000000009 39.38000000000002 19.69000000000001 0 0 0
584 1 8.950000000000012 37.59000000000001 23.27000000000001 0 0 0
585 1 8.950000000000012 39.38000000000002 25.06000000000001 0 0 0
586 1 10.740000000000009 37.59000000000001 25.06000000000001 0 0 0
587 1 10.740000000000009 39.38000000000002 23.27000000000001 0 0 0
588 1 8.950000000000012 37.59000000000001 26.850000000000012 0 0 0
589 1 8.950000000000012 39.38000000000002 28.64000000000001 0 0 0
590 3 10.740000000000009 37.59000000000001 28.64000000000001 0 0 0
591 1 10.740000000000009 39.38000000000002 26.850000000000012 0 0 0
592 1 8.950000000000012 37.59000000000001 30.43000000000001 0 0 0
593 1 8.950000000000012 39.38000000000002 32.22000000000001 0 0 0
594 3 10.740000000000009 37.59000000000001 32.22000000000001 0 0 0
595 1 10.740000000000009 39.38000000000002 30.43000000000001 0 0 0
596 2 8.950000000000012 37.59000000000001 34.01000000000001 0 0 0
597 1 8.950000000000012 39.38000000000002 35.80000000000001 0 0 0
598 1 10.740000000000009 37.59000000000001 35.80000000000001 0 0 0
599 1 10.740000000000009 39.38000000000002 34.01000000000001 0 0 0
600 2 8.950000000000012 37.59000000000001 37.59000000000001 0 0 0
601 1 8.950000000000012 39.38000000000002 39.38000000000002 0 0 0
602 2 10.740000000000009 37.59000000000001 39.38000000000002 0 0 0
603 1 10.740000000000009 39.38000000000002 37.59000000000001 0 0 0
604 2 8.950000000000012 37.59000000000001 41.170000000000016 0 0 0
605 1 8.950000000000012 39.38000000000002 42.960000000000015 0 0 0
606 3 10.740000000000009 37.59000000000001 42.960000000000015 0 0 0
607 2 10.740000000000009 39.38000000000002 41.170000000000016 0 0 0
608 2 8.950000000000012 37.59000000000001 44.750000000000014 0 0 0
611 1 10.740000000000009 39.38000000000002 44.750000000000014 0 0 0
636 3 10.740000000000009 41.170000000000016 17.900000000000006 0 0 0
637 1 10.740000000000009 42.960000000000015 16.110000000000007 0 0 0
638 3 8.950000000000012 42.960000000000015 21.480000000000008 0 0 0
639 1 10.740000000000009 41.170000000000016 21.480000000000008 0 0 0
640 1 10.740000000000009 42.960000000000015 19.69000000000001 0 0 0
641 3 8.950000000000012 41.170000000000016 23.27000000000001 0 0 0
642 1 8.950000000000012 42.960000000000015 25.06000000000001 0 0 0
643 1 10.740000000000009 41.170000000000016 25.06000000000001 0 0 0
644 2 10.740000000000009 42.960000000000015 23.27000000000001 0 0 0
645 1 8.950000000000012 41.170000000000016 26.850000000000012 0 0 0
646 1 8.950000000000012 42.960000000000015 28.64000000000001 0 0 0
647 2 10.740000000000009 41.170000000000016 28.64000000000001 0 0 0
648 1 10.740000000000009 42.960000000000015 26.850000000000012 0 0 0
649 2 8.950000000000012 41.170000000000016 30.43000000000001 0 0 0
650 1 8.950000000000012 42.960000000000015 32.22000000000001 0 0 0
651 1 10.740000000000009 41.170000000000016 32.22000000000001 0 0 0
652 3 10.740000000000009 42.960000000000015 30.43000000000001 0 0 0
653 2 8.950000000000012 41.170000000000016 34.01000000000001 0 0 0
654 1 8.950000000000012 42.960000000000015 35.80000000000001 0 0 0
655 3 10.740000000000009 41.170000000000016 35.80000000000001 0 0 0
656 1 10.740000000000009 42.960000000000015 34.01000000000001 0 0 0
657 1 8.950000000000012 41.170000000000016 37.59000000000001 0 0 0
658 1 8.950000000000012 42.960000000000015 39.38000000000002 0 0 0
659 1 10.740000000000009 41.170000000000016 39.38000000000002 0 0 0
660 3 10.740000000000009 42.960000000000015 37.59000000000001 0 0 0
661 1 8.950000000000012 41.170000000000016 41.170000000000016 0 0 0
662 1 8.950000000000012 42.960000000000015 42.960000000000015 0 0 0
663 1 10.740000000000009 41.170000000000016 42.960000000000015 0 0 0
664 1 10.740000000000009 42.960000000000015 41.170000000000016 0 0 0
665 1 8.950000000000012 41.170000000000016 44.750000000000014 0 0 0
668 3 10.740000000000009 42.960000000000015 44.750000000000014 0 0 0
696 3 10.740000000000009 44.750000000000014 17.900000000000006 0 0 0
698 2 8.950000000000012 44.750000000000014 19.69000000000001 0 0 0
700 1 10.740000000000009 44.750000000000014 21.480000000000008 0 0 0
702 2 8.950000000000012 44.750000000000014 23.27000000000001 0 0 0
704 1 10.740000000000009 44.750000000000014 25.06000000000001 0 0 0
706 3 8.950000000000012 44.750000000000014 26.850000000000012 0 0 0
708 1 10.740000000000009 44.750000000000014 28.64000000000001 0 0 0
710 1 8.950000000000012 44.750000000000014 30.43000000000001 0 0 0
712 1 10.740000000000009 44.750000000000014 32.22000000000001 0 0 0
714 1 8.950000000000012 44.750000000000014 34.01000000000001 0 0 0
716 3 10.740000000000009 44.750000000000014 35.80000000000001 0 0 0
718 1 8.950000000000012 44.750000000000014 37.59000000000001 0 0 0
720 2 10.740000000000009 44.750000000000014 39.38000000000002 0 0 0
722 2 8.950000000000012 44.750000000000014 41.170000000000016 0 0 0
724 1 10.740000000000009 44.750000000000014 42.960000000000015 0 0 0
726 1 8.950000000000012 44.750000000000014 44.750000000000014 0 0 0
1036 3 14.320000000000007 14.320000000000007 30.43000000000001 0 0 0
1037 1 14.320000000000007 14.320000000000007 34.01000000000001 0 0 0
1038 1 12.530000000000008 14.320000000000007 39.38000000000002 0 0 0
1039 3 14.320000000000007 12.530000000000008 39.38000000000002 0 0 0
1040 2 14.320000000000007 14.320000000000007 37.59000000000001 0 0 0
1041 1 12.530000000000008 12.530000000000008 41.170000000000016 0 0 0
1042 2 12.530000000000008 14.320000000000007 42.960000000000015 0 0 0
1043 2 14.320000000000007 12.530000000000008 42.960000000000015 0 0 0
1044 1 14.320000000000007 14.320000000000007 41.170000000000016 0 0 0
1045 1 12.530000000000008 12.530000000000008 44.750000000000014 0 0 0
1048 3 14.320000000000007 14.320000000000007 44.750000000000014 0 0 0
1056 1 14.320000000000007 16.110000000000007 25.06000000000001 0 0 0
1057 1 14.320000000000007 17.900000000000006 23.27000000000001 0 0 0
1058 1 14.320000000000007 16.110000000000007 28.64000000000001 0 0 0
1059 1 14.320000000000007 17.900000000000006 26.850000000000012 0 0 0
1060 1 12.530000000000008 17.900000000000006 32.22000000000001 0 0 0
1061 2 14.320000000000007 16.110000000000007 32.22000000000001 0 0 0
1062 2 14.320000000000007 17.900000000000006 30.43000000000001 0 0 0
1063 2 12.530000000000008 16.110000000000007 34.01000000000001 0 0 0
1064 2 12.530000000000008 17.900000000000006 35.80000000000001 0 0 0
1065 2 14.320000000000007 16.110000000000007 35.80000000000001 0 0 0
1066 1 14.320000000000007 17.900000000000006 34.01000000000001 0 0 0
1067 1 12.530000000000008 16.110000000000007 37.59000000000001 0 0 0
1068 1 12.530000000000008 17.900000000000006 39.38000000000002 0 0 0
1069 2 14.320000000000007 16.110000000000007 39.38000000000002 0 0 0
1070 1 14.320000000000007 17.900000000000006 37.59000000000001 0 0 0
1071 1 12.530000000000008 16.110000000000007 41.170000000000016 0 0 0
1072 1 12.530000000000008 17.900000000000006 42.960000000000015 0 0 0
1073 1 14.320000000000007 16.110000000000007 42.960000000000015 0 0 0
1074 1 14.320000000000007 17.900000000000006 41.170000000000016 0 0 0
1075 2 12.530000000000008 16.110000000000007 44.750000000000014 0 0 0
1078 3 14.320000000000007 17.900000000000006 44.750000000000014 0 0 0
1096 1 14.320000000000007 19.69000000000001 21.480000000000008 0 0 0
1097 1 14.320000000000007 21.480000000000008 19.69000000000001 0 0 0
1098 3 12.530000000000008 21.480000000000008 25.06000000000001 0 0 0
1099 2 14.320000000000007 19.69000000000001 25.06000000000001 0 0 0
1100 3 14.320000000000007 21.480000000000008 23.27000000000001 0 0 0
1101 1 12.530000000000008 19.69000000000001 26.850000000000012 0 0 0
1102 1 12.530000000000008 21.480000000000008 28.64000000000001 0 0 0
1103 2 14.320000000000007 19.69000000000001 28.64000000000001 0 0 0
1104 2 14.320000000000007 21.480000000000008 26.850000000000012 0 0 0
1105 1 12.530000000000008 19.69000000000001 30.43000000000001 0 0 0
1106 1 12.530000000000008 21.480000000000008 32.22000000000001 0 0 0
1107 3 14.320000000000007 19.69000000000001 32.22000000000001 0 0 0
1108 3 14.320000000000007 21.480000000000008 30.43000000000001 0 0 0
1109 2 12.530000000000008 19.69000000000001 34.01000000000001 0 0 0
1110 1 12.530000000000008 21.480000000000008 35.80000000000001 0 0 0
1111 3 14.320000000000007 19.69000000000001 35.80000000000001 0 0 0
1112 3 14.320000000000007 21.480000000000008 34.01000000000001 0 0 0
1113 1 12.530000000000008 19.69000000000001 37.59000000000001 0 0 0
1114 2 12.530000000000008 21.480000000000008 39.38000000000002 0 0 0
1115 1 14.320000000000007 19.69000000000001 39.38000000000002 0 0 0
1116 2 14.320000000000007 21.480000000000008 37.59000000000001 0 0 0
1117 1 12.530000000000008 19.69000000000001 41.170000000000016 0 0 0
1118 1 12.530000000000008 21.480000000000008 42.960000000000015 0 0 0
1119 1 14.320000000000007 19.69000000000001 42.960000000000015 0 0 0
1120 1 14.320000000000007 21.480000000000008 41.170000000000016 0 0 0
1121 1 12.530000000000008 19.69000000000001 44.750000000000014 0 0 0
1124 1 14.320000000000007 21.480000000000008 44.750000000000014 0 0 0
1148 3 14.320000000000007 23.27000000000001 17.900000000000006 0 0 0
1149 2 14.320000000000007 25.06000000000001 16.110000000000007 0 0 0
1150 2 12.530000000000008 25.06000000000001 21.480000000000008 0 0 0
1151 1 14.320000000000007 23.27000000000001 21.480000000000008 0 0 0
1152 1 14.320000000000007 25.06000000000001 19.69000000000001 0 0 0
1153 1 12.530000000000008 23.27000000000001 23.27000000000001 0 0 0
1154 1 12.530000000000008 25.06000000000001 25.06000000000001 0 0 0
1155 1 14.320000000000007 23.27000000000001 25.06000000000001 0 0 0
1156 3 14.320000000000007 25.06000000000001 23.27000000000001 0 0 0
1157 1 12.530000000000008 23.27000000000001 26.850000000000012 0 0 0
1158 1 12.530000000000008 25.06000000000001 28.64000000000001 0 0 0
1159 1 14.320000000000007 23.27000000000001 28.64000000000001 0 0 0
1160 1 14.320000000000007 25.06000000000001 26.850000000000012 0 0 0
1161 3 12.530000000000008 23.27000000000001 30.43000000000001 0 0 0
1162 2 12.530000000000008 25.06000000000001 32.22000000000001 0 0 0
1163 1 14.320000000000007 23.27000000000001 32.22000000000001 0 0 0
1164 1 14.320000000000007 25.06000000000001 30.43000000000001 0 0 0
1165 3 12.530000000000008 23.27000000000001 34.01000000000001 0 0 0
1166 2 12.530000000000008 25.06000000000001 35.80000000000001 0 0 0
1167 3 14.320000000000007 23.27000000000001 35.80000000000001 0 0 0
1168 1 14.320000000000007 25.06000000000001 34.01000000000001 0 0 0
1169 1 12.530000000000008 23.27000000000001 37.59000000000001 0 0 0
1170 2 12.530000000000008 25.06000000000001 39.38000000000002 0 0 0
1171 2 14.320000000000007 23.27000000000001 39.38000000000002 0 0 0
1172 2 14.320000000000007 25.06000000000001 37.59000000000001 0 0 0
1173 1 12.530000000000008 23.27000000000001 41.170000000000016 0 0 0
1174 3 12.530000000000008 25.06000000000001 42.960000000000015 0 0 0
1175 1 14.320000000000007 23.27000000000001 42.960000000000015 0 0 0
1176 2 14.320000000000007 25.06000000000001 41.170000000000016 0 0 0
1177 1 12.530000000000008 23.27000000000001 44.750000000000014 0 0 0
1180 3 14.320000000000007 25.06000000000001 44.750000000000014 0 0 0
1208 1 14.320000000000007 26.850000000000012 17.900000000000006 0 0 0
1209 1 14.320000000000007 28.64000000000001 16.110000000000007 0 0 0
1210 1 12.530000000000008 26.850000000000012 19.69000000000001 0 0 0
1211 1 12.530000000000008 28.64000000000001 21.480000000000008 0 0 0
1212 1 14.320000000000007 26.850000000000012 21.480000000000008 0 0 0
1213 2 14.320000000000007 28.64000000000001 19.69000000000001 0 0 0
1214 2 12.530000000000008 26.850000000000012 23.27000000000001 0 0 0
1215 1 12.530000000000008 28.64000000000001 25.06000000000001 0 0 0
1216 1 14.320000000000007 26.850000000000012 25.06000000000001 0 0 0
1217 1 14.320000000000007 28.64000000000001 23.27000000000001 0 0 0
1218 1 12.530000000000008 26.850000000000012 26.850000000000012 0 0 0
1219 1 12.530000000000008 28.64000000000001 28.64000000000001 0 0 0
1220 1 14.320000000000007 26.850000000000012 28.64000000000001 0 0 0
1221 1 14.320000000000007 28.64000000000001 26.850000000000012 0 0 0
1222 2 12.530000000000008 26.850000000000012 30.43000000000001 0 0 0
1223 1 12.530000000000008 28.64000000000001 32.22000000000001 0 0 0
1224 1 14.320000000000007 26.850000000000012 32.22000000000001 0 0 0
1225 1 14.320000000000007 28.64000000000001 30.43000000000001 0 0 0
1226 1 12.530000000000008 26.850000000000012 34.01000000000001 0 0 0
1227 2 12.530000000000008 28.64000000000001 35.80000000000001 0 0 0
1228 1 14.320000000000007 26.850000000000012 35.80000000000001 0 0 0
1229 2 14.320000000000007 28.64000000000001 34.01000000000001 0 0 0
1230 1 12.530000000000008 26.850000000000012 37.59000000000001 0 0 0
1231 3 12.530000000000008 28.64000000000001 39.38000000000002 0 0 0
1232 2 14.320000000000007 26.850000000000012 39.38000000000002 0 0 0
1233 1 14.320000000000007 28.64000000000001 37.59000000000001 0 0 0
1234 2 12.530000000000008 26.850000000000012 41.170000000000016 0 0 0
1235 3 12.530000000000008 28.64000000000001 42.960000000000015 0 0 0
1236 1 14.320000000000007 26.850000000000012 42.960000000000015 0 0 0
1237 1 14.320000000000007 28.64000000000001 41.170000000000016 0 0 0
1238 1 12.530000000000008 26.850000000000012 44.750000000000014 0 0 0
1241 3 14.320000000000007 28.64000000000001 44.750000000000014 0 0 0
1270 2 14.320000000000007 30.43000000000001 14.320000000000007 0 0 0
1271 2 12.530000000000008 32.22000000000001 17.900000000000006 0 0 0
1272 1 14.320000000000007 30.43000000000001 17.900000000000006 0 0 0
1273 1 14.320000000000007 32.22000000000001 16.110000000000007 0 0 0
1274 3 12.530000000000008 30.43000000000001 19.69000000000001 0 0 0
1275 1 12.530000000000008 32.22000000000001 21.480000000000008 0 0 0
1276 1 14.320000000000007 30.43000000000001 21.480000000000008 0 0 0
1277 1 14.320000000000007 32.22000000000001 19.69000000000001 0 0 0
1278 2 12.530000000000008 30.43000000000001 23.27000000000001 0 0 0
1279 1 12.530000000000008 32.22000000000001 25.06000000000001 0 0 0
1280 1 14.320000000000007 30.43000000000001 25.06000000000001 0 0 0
1281 2 14.320000000000007 32.22000000000001 23.27000000000001 0 0 0
1282 2 12.530000000000008 30.43000000000001 26.850000000000012 0 0 0
1283 2 12.530000000000008 32.22000000000001 28.64000000000001 0 0 0
1284 2 14.320000000000007 30.43000000000001 28.64000000000001 0 0 0
1285 1 14.320000000000007 32.22000000000001 26.850000000000012 0 0 0
1286 1 12.530000000000008 30.43000000000001 30.43000000000001 0 0 0
1287 1 12.530000000000008 32.22000000000001 32.22000000000001 0 0 0
1288 1 14.320000000000007 30.43000000000001 32.22000000000001 0 0 0
1289 3 14.320000000000007 32.22000000000001 30.43000000000001 0 0 0
1290 2 12.530000000000008 30.43000000000001 34.01000000000001 0 0 0
1291 2 12.530000000000008 32.22000000000001 35.80000000000001 0 0 0
1292 3 14.320000000000007 30.43000000000001 35.80000000000001 0 0 0
1293 1 14.320000000000007 32.22000000000001 34.01000000000001 0 0 0
1294 1 12.530000000000008 30.43000000000001 37.59000000000001 0 0 0
1295 3 12.530000000000008 32.22000000000001 39.38000000000002 0 0 0