model_files/PtNi/PtNi_30000/PtNi_430/PtNi_430_fcc_29909_temp.data (written by ASE) 

29909 	 atoms 
2  atom types
0.0                     109  xlo xhi
0.0                     109  ylo yhi
0.0                     109  zlo zhi


Atoms 

     1   1      1.9149999999999991      51.705000000000005      53.620000000000005
     2   1      1.9149999999999991      53.620000000000005      51.705000000000005
     3   1                       0      53.620000000000005      53.620000000000005
     4   1      1.9149999999999991      53.620000000000005      55.535000000000011
     5   1      1.9149999999999991      55.535000000000011      53.620000000000005
     6   1      3.8299999999999983                  47.875                  47.875
     7   1      5.7450000000000045      45.960000000000008                  47.875
     8   1      5.7450000000000045                  47.875      45.960000000000008
     9   1      3.8299999999999983                  47.875      51.705000000000005
    10   1      5.7450000000000045      45.960000000000008      51.705000000000005
    11   1      5.7450000000000045                  47.875      49.790000000000006
    12   1      3.8299999999999983                  47.875      55.535000000000011
    13   1      5.7450000000000045      45.960000000000008      55.535000000000011
    14   1      5.7450000000000045                  47.875      53.620000000000005
    15   1      3.8299999999999983                  47.875      59.365000000000009
    16   1      5.7450000000000045      45.960000000000008      59.365000000000009
    17   1      5.7450000000000045                  47.875       57.45000000000001
    18   1      5.7450000000000045                  47.875      61.280000000000008
    19   1      3.8299999999999983      51.705000000000005                  47.875
    20   1      5.7450000000000045      49.790000000000006                  47.875
    21   1      5.7450000000000045      51.705000000000005      45.960000000000008
    22   1      3.8299999999999983      49.790000000000006      49.790000000000006
    23   1      3.8299999999999983      51.705000000000005      51.705000000000005
    24   1      5.7450000000000045      49.790000000000006      51.705000000000005
    25   1      5.7450000000000045      51.705000000000005      49.790000000000006
    26   1      3.8299999999999983      49.790000000000006      53.620000000000005
    27   1      3.8299999999999983      51.705000000000005      55.535000000000011
    28   1      5.7450000000000045      49.790000000000006      55.535000000000011
    29   1      5.7450000000000045      51.705000000000005      53.620000000000005
    30   1      3.8299999999999983      49.790000000000006       57.45000000000001
    31   1      3.8299999999999983      51.705000000000005      59.365000000000009
    32   1      5.7450000000000045      49.790000000000006      59.365000000000009
    33   1      5.7450000000000045      51.705000000000005       57.45000000000001
    34   1      5.7450000000000045      51.705000000000005      61.280000000000008
    35   1      3.8299999999999983      55.535000000000011                  47.875
    36   1      5.7450000000000045      53.620000000000005                  47.875
    37   1      5.7450000000000045      55.535000000000011      45.960000000000008
    38   1      3.8299999999999983      53.620000000000005      49.790000000000006
    39   1      3.8299999999999983      55.535000000000011      51.705000000000005
    40   1      5.7450000000000045      53.620000000000005      51.705000000000005
    41   1      5.7450000000000045      55.535000000000011      49.790000000000006
    42   1      3.8299999999999983      53.620000000000005      53.620000000000005
    43   1      3.8299999999999983      55.535000000000011      55.535000000000011
    44   1      5.7450000000000045      53.620000000000005      55.535000000000011
    45   1      5.7450000000000045      55.535000000000011      53.620000000000005
    46   1      3.8299999999999983      53.620000000000005       57.45000000000001
    47   1      3.8299999999999983      55.535000000000011      59.365000000000009
    48   1      5.7450000000000045      53.620000000000005      59.365000000000009
    49   1      5.7450000000000045      55.535000000000011       57.45000000000001
    50   1      5.7450000000000045      55.535000000000011      61.280000000000008
    51   1      3.8299999999999983      59.365000000000009                  47.875
    52   1      5.7450000000000045       57.45000000000001                  47.875
    53   1      5.7450000000000045      59.365000000000009      45.960000000000008
    54   1      3.8299999999999983       57.45000000000001      49.790000000000006
    55   1      3.8299999999999983      59.365000000000009      51.705000000000005
    56   1      5.7450000000000045       57.45000000000001      51.705000000000005
    57   1      5.7450000000000045      59.365000000000009      49.790000000000006
    58   1      3.8299999999999983       57.45000000000001      53.620000000000005
    59   1      3.8299999999999983      59.365000000000009      55.535000000000011
    60   1      5.7450000000000045       57.45000000000001      55.535000000000011
    61   1      5.7450000000000045      59.365000000000009      53.620000000000005
    62   1      3.8299999999999983       57.45000000000001       57.45000000000001
    63   1      3.8299999999999983      59.365000000000009      59.365000000000009
    64   1      5.7450000000000045       57.45000000000001      59.365000000000009
    65   1      5.7450000000000045      59.365000000000009       57.45000000000001
    66   1      5.7450000000000045      59.365000000000009      61.280000000000008
    67   1      5.7450000000000045      61.280000000000008                  47.875
    68   1      5.7450000000000045      61.280000000000008      51.705000000000005
    69   1      5.7450000000000045      61.280000000000008      55.535000000000011
    70   1      5.7450000000000045      61.280000000000008      59.365000000000009
    71   1      9.5750000000000028      40.215000000000003      42.130000000000003
    72   1      9.5750000000000028      40.215000000000003      45.960000000000008
    73   1      9.5750000000000028      40.215000000000003      49.790000000000006
    74   1      9.5750000000000028      40.215000000000003      53.620000000000005
    75   1      9.5750000000000028      40.215000000000003       57.45000000000001
    76   1      9.5750000000000028      40.215000000000003      61.280000000000008
    77   1      9.5750000000000028      40.215000000000003      65.110000000000014
    78   1      9.5750000000000028      42.130000000000003      40.215000000000003
    79   1      7.6600000000000037      44.045000000000009      44.045000000000009
    80   1      9.5750000000000028      42.130000000000003      44.045000000000009
    81   1      9.5750000000000028      44.045000000000009      42.130000000000003
    82   1      7.6600000000000037      44.045000000000009                  47.875
    83   1      9.5750000000000028      42.130000000000003                  47.875
    84   1      9.5750000000000028      44.045000000000009      45.960000000000008
    85   1      7.6600000000000037      44.045000000000009      51.705000000000005
    86   1      9.5750000000000028      42.130000000000003      51.705000000000005
    87   1      9.5750000000000028      44.045000000000009      49.790000000000006
    88   1      7.6600000000000037      44.045000000000009      55.535000000000011
    89   1      9.5750000000000028      42.130000000000003      55.535000000000011
    90   1      9.5750000000000028      44.045000000000009      53.620000000000005
    91   1      7.6600000000000037      44.045000000000009      59.365000000000009
    92   1      9.5750000000000028      42.130000000000003      59.365000000000009
    93   1      9.5750000000000028      44.045000000000009       57.45000000000001
    94   1      7.6600000000000037      44.045000000000009      63.195000000000007
    95   1      9.5750000000000028      42.130000000000003      63.195000000000007
    96   1      9.5750000000000028      44.045000000000009      61.280000000000008
    97   1      9.5750000000000028      42.130000000000003      67.025000000000006
    98   1      9.5750000000000028      44.045000000000009      65.110000000000014
    99   1      9.5750000000000028      45.960000000000008      40.215000000000003
   100   1      7.6600000000000037                  47.875      44.045000000000009
   101   1      9.5750000000000028      45.960000000000008      44.045000000000009
   102   1      9.5750000000000028                  47.875      42.130000000000003
   103   1      7.6600000000000037      45.960000000000008      45.960000000000008
   104   1      7.6600000000000037                  47.875                  47.875
   105   1      9.5750000000000028      45.960000000000008                  47.875
   106   1      9.5750000000000028                  47.875      45.960000000000008
   107   1      7.6600000000000037      45.960000000000008      49.790000000000006
   108   1      7.6600000000000037                  47.875      51.705000000000005
   109   1      9.5750000000000028      45.960000000000008      51.705000000000005
   110   1      9.5750000000000028                  47.875      49.790000000000006
   111   1      7.6600000000000037      45.960000000000008      53.620000000000005
   112   1      7.6600000000000037                  47.875      55.535000000000011
   113   1      9.5750000000000028      45.960000000000008      55.535000000000011
   114   1      9.5750000000000028                  47.875      53.620000000000005
   115   1      7.6600000000000037      45.960000000000008       57.45000000000001
   116   1      7.6600000000000037                  47.875      59.365000000000009
   117   1      9.5750000000000028      45.960000000000008      59.365000000000009
   118   1      9.5750000000000028                  47.875       57.45000000000001
   119   1      7.6600000000000037      45.960000000000008      61.280000000000008
   120   1      7.6600000000000037                  47.875      63.195000000000007
   121   1      9.5750000000000028      45.960000000000008      63.195000000000007
   122   1      9.5750000000000028                  47.875      61.280000000000008
   123   1      9.5750000000000028      45.960000000000008      67.025000000000006
   124   1      9.5750000000000028                  47.875      65.110000000000014
   125   1      9.5750000000000028      49.790000000000006      40.215000000000003
   126   1      7.6600000000000037      51.705000000000005      44.045000000000009
   127   1      9.5750000000000028      49.790000000000006      44.045000000000009
   128   1      9.5750000000000028      51.705000000000005      42.130000000000003
   129   1      7.6600000000000037      49.790000000000006      45.960000000000008
   130   1      7.6600000000000037      51.705000000000005                  47.875
   131   1      9.5750000000000028      49.790000000000006                  47.875
   132   1      9.5750000000000028      51.705000000000005      45.960000000000008
   133   1      7.6600000000000037      49.790000000000006      49.790000000000006
   134   1      7.6600000000000037      51.705000000000005      51.705000000000005
   135   1      9.5750000000000028      49.790000000000006      51.705000000000005
   136   1      9.5750000000000028      51.705000000000005      49.790000000000006
   137   1      7.6600000000000037      49.790000000000006      53.620000000000005
   138   1      7.6600000000000037      51.705000000000005      55.535000000000011
   139   1      9.5750000000000028      49.790000000000006      55.535000000000011
   140   1      9.5750000000000028      51.705000000000005      53.620000000000005
   141   1      7.6600000000000037      49.790000000000006       57.45000000000001
   142   1      7.6600000000000037      51.705000000000005      59.365000000000009
   143   1      9.5750000000000028      49.790000000000006      59.365000000000009
   144   1      9.5750000000000028      51.705000000000005       57.45000000000001
   145   1      7.6600000000000037      49.790000000000006      61.280000000000008
   146   1      7.6600000000000037      51.705000000000005      63.195000000000007
   147   1      9.5750000000000028      49.790000000000006      63.195000000000007
   148   1      9.5750000000000028      51.705000000000005      61.280000000000008
   149   1      9.5750000000000028      49.790000000000006      67.025000000000006
   150   1      9.5750000000000028      51.705000000000005      65.110000000000014
   151   1      9.5750000000000028      53.620000000000005      40.215000000000003
   152   1      7.6600000000000037      55.535000000000011      44.045000000000009
   153   1      9.5750000000000028      53.620000000000005      44.045000000000009
   154   1      9.5750000000000028      55.535000000000011      42.130000000000003
   155   1      7.6600000000000037      53.620000000000005      45.960000000000008
   156   1      7.6600000000000037      55.535000000000011                  47.875
   157   1      9.5750000000000028      53.620000000000005                  47.875
   158   1      9.5750000000000028      55.535000000000011      45.960000000000008
   159   1      7.6600000000000037      53.620000000000005      49.790000000000006
   160   1      7.6600000000000037      55.535000000000011      51.705000000000005
   161   1      9.5750000000000028      53.620000000000005      51.705000000000005
   162   1      9.5750000000000028      55.535000000000011      49.790000000000006
   163   1      7.6600000000000037      53.620000000000005      53.620000000000005
   164   1      7.6600000000000037      55.535000000000011      55.535000000000011
   165   1      9.5750000000000028      53.620000000000005      55.535000000000011
   166   1      9.5750000000000028      55.535000000000011      53.620000000000005
   167   1      7.6600000000000037      53.620000000000005       57.45000000000001
   168   1      7.6600000000000037      55.535000000000011      59.365000000000009
   169   1      9.5750000000000028      53.620000000000005      59.365000000000009
   170   1      9.5750000000000028      55.535000000000011       57.45000000000001
   171   1      7.6600000000000037      53.620000000000005      61.280000000000008
   172   1      7.6600000000000037      55.535000000000011      63.195000000000007
   173   1      9.5750000000000028      53.620000000000005      63.195000000000007
   174   1      9.5750000000000028      55.535000000000011      61.280000000000008
   175   1      9.5750000000000028      53.620000000000005      67.025000000000006
   176   1      9.5750000000000028      55.535000000000011      65.110000000000014
   177   1      9.5750000000000028       57.45000000000001      40.215000000000003
   178   1      7.6600000000000037      59.365000000000009      44.045000000000009
   179   1      9.5750000000000028       57.45000000000001      44.045000000000009
   180   1      9.5750000000000028      59.365000000000009      42.130000000000003
   181   1      7.6600000000000037       57.45000000000001      45.960000000000008
   182   1      7.6600000000000037      59.365000000000009                  47.875
   183   1      9.5750000000000028       57.45000000000001                  47.875
   184   1      9.5750000000000028      59.365000000000009      45.960000000000008
   185   1      7.6600000000000037       57.45000000000001      49.790000000000006
   186   1      7.6600000000000037      59.365000000000009      51.705000000000005
   187   1      9.5750000000000028       57.45000000000001      51.705000000000005
   188   1      9.5750000000000028      59.365000000000009      49.790000000000006
   189   1      7.6600000000000037       57.45000000000001      53.620000000000005
   190   1      7.6600000000000037      59.365000000000009      55.535000000000011
   191   1      9.5750000000000028       57.45000000000001      55.535000000000011
   192   1      9.5750000000000028      59.365000000000009      53.620000000000005
   193   1      7.6600000000000037       57.45000000000001       57.45000000000001
   194   1      7.6600000000000037      59.365000000000009      59.365000000000009
   195   1      9.5750000000000028       57.45000000000001      59.365000000000009
   196   1      9.5750000000000028      59.365000000000009       57.45000000000001
   197   1      7.6600000000000037       57.45000000000001      61.280000000000008
   198   1      7.6600000000000037      59.365000000000009      63.195000000000007
   199   1      9.5750000000000028       57.45000000000001      63.195000000000007
   200   1      9.5750000000000028      59.365000000000009      61.280000000000008
   201   1      9.5750000000000028       57.45000000000001      67.025000000000006
   202   1      9.5750000000000028      59.365000000000009      65.110000000000014
   203   1      9.5750000000000028      61.280000000000008      40.215000000000003
   204   1      7.6600000000000037      63.195000000000007      44.045000000000009
   205   1      9.5750000000000028      61.280000000000008      44.045000000000009
   206   1      9.5750000000000028      63.195000000000007      42.130000000000003
   207   1      7.6600000000000037      61.280000000000008      45.960000000000008
   208   1      7.6600000000000037      63.195000000000007                  47.875
   209   1      9.5750000000000028      61.280000000000008                  47.875
   210   1      9.5750000000000028      63.195000000000007      45.960000000000008
   211   1      7.6600000000000037      61.280000000000008      49.790000000000006
   212   1      7.6600000000000037      63.195000000000007      51.705000000000005
   213   1      9.5750000000000028      61.280000000000008      51.705000000000005
   214   1      9.5750000000000028      63.195000000000007      49.790000000000006
   215   1      7.6600000000000037      61.280000000000008      53.620000000000005
   216   1      7.6600000000000037      63.195000000000007      55.535000000000011
   217   1      9.5750000000000028      61.280000000000008      55.535000000000011
   218   1      9.5750000000000028      63.195000000000007      53.620000000000005
   219   1      7.6600000000000037      61.280000000000008       57.45000000000001
   220   1      7.6600000000000037      63.195000000000007      59.365000000000009
   221   1      9.5750000000000028      61.280000000000008      59.365000000000009
   222   1      9.5750000000000028      63.195000000000007       57.45000000000001
   223   1      7.6600000000000037      61.280000000000008      61.280000000000008
   224   1      7.6600000000000037      63.195000000000007      63.195000000000007
   225   1      9.5750000000000028      61.280000000000008      63.195000000000007
   226   1      9.5750000000000028      63.195000000000007      61.280000000000008
   227   1      9.5750000000000028      61.280000000000008      67.025000000000006
   228   1      9.5750000000000028      63.195000000000007      65.110000000000014
   229   1      9.5750000000000028      65.110000000000014      40.215000000000003
   230   1      9.5750000000000028      65.110000000000014      44.045000000000009
   231   1      9.5750000000000028      67.025000000000006      42.130000000000003
   232   1      9.5750000000000028      65.110000000000014                  47.875
   233   1      9.5750000000000028      67.025000000000006      45.960000000000008
   234   1      9.5750000000000028      65.110000000000014      51.705000000000005
   235   1      9.5750000000000028      67.025000000000006      49.790000000000006
   236   1      9.5750000000000028      65.110000000000014      55.535000000000011
   237   1      9.5750000000000028      67.025000000000006      53.620000000000005
   238   1      9.5750000000000028      65.110000000000014      59.365000000000009
   239   1      9.5750000000000028      67.025000000000006       57.45000000000001
   240   1      9.5750000000000028      65.110000000000014      63.195000000000007
   241   1      9.5750000000000028      67.025000000000006      61.280000000000008
   242   1      9.5750000000000028      65.110000000000014      67.025000000000006
   243   1      9.5750000000000028      67.025000000000006      65.110000000000014
   244   1      13.405000000000001      36.384999999999998      38.300000000000004
   245   1      13.405000000000001      36.384999999999998      42.130000000000003
   246   1      13.405000000000001      36.384999999999998      45.960000000000008
   247   1      13.405000000000001      36.384999999999998      49.790000000000006
   248   1      13.405000000000001      36.384999999999998      53.620000000000005
   249   1      13.405000000000001      36.384999999999998       57.45000000000001
   250   1      13.405000000000001      36.384999999999998      61.280000000000008
   251   1      13.405000000000001      36.384999999999998      65.110000000000014
   252   1      13.405000000000001      36.384999999999998      68.939999999999998
   253   1      13.405000000000001      38.300000000000004      36.384999999999998
   254   1      11.490000000000004      38.300000000000004      38.300000000000004
   255   1      11.490000000000004      40.215000000000003      40.215000000000003
   256   1      13.405000000000001      38.300000000000004      40.215000000000003
   257   1      13.405000000000001      40.215000000000003      38.300000000000004
   258   1      11.490000000000004      38.300000000000004      42.130000000000003
   259   1      11.490000000000004      40.215000000000003      44.045000000000009
   260   1      13.405000000000001      38.300000000000004      44.045000000000009
   261   1      13.405000000000001      40.215000000000003      42.130000000000003
   262   1      11.490000000000004      38.300000000000004      45.960000000000008
   263   1      11.490000000000004      40.215000000000003                  47.875
   264   1      13.405000000000001      38.300000000000004                  47.875
   265   1      13.405000000000001      40.215000000000003      45.960000000000008
   266   1      11.490000000000004      38.300000000000004      49.790000000000006
   267   1      11.490000000000004      40.215000000000003      51.705000000000005
   268   1      13.405000000000001      38.300000000000004      51.705000000000005
   269   1      13.405000000000001      40.215000000000003      49.790000000000006
   270   1      11.490000000000004      38.300000000000004      53.620000000000005
   271   1      11.490000000000004      40.215000000000003      55.535000000000011
   272   1      13.405000000000001      38.300000000000004      55.535000000000011
   273   1      13.405000000000001      40.215000000000003      53.620000000000005
   274   1      11.490000000000004      38.300000000000004       57.45000000000001
   275   1      11.490000000000004      40.215000000000003      59.365000000000009
   276   1      13.405000000000001      38.300000000000004      59.365000000000009
   277   1      13.405000000000001      40.215000000000003       57.45000000000001
   278   1      11.490000000000004      38.300000000000004      61.280000000000008
   279   1      11.490000000000004      40.215000000000003      63.195000000000007
   280   1      13.405000000000001      38.300000000000004      63.195000000000007
   281   1      13.405000000000001      40.215000000000003      61.280000000000008
   282   1      11.490000000000004      38.300000000000004      65.110000000000014
   283   1      11.490000000000004      40.215000000000003      67.025000000000006
   284   1      13.405000000000001      38.300000000000004      67.025000000000006
   285   1      13.405000000000001      40.215000000000003      65.110000000000014
   286   1      11.490000000000004      38.300000000000004      68.939999999999998
   287   1      13.405000000000001      38.300000000000004      70.855000000000004
   288   1      13.405000000000001      40.215000000000003      68.939999999999998
   289   1      13.405000000000001      42.130000000000003      36.384999999999998
   290   1      11.490000000000004      42.130000000000003      38.300000000000004
   291   1      11.490000000000004      44.045000000000009      40.215000000000003
   292   1      13.405000000000001      42.130000000000003      40.215000000000003
   293   1      13.405000000000001      44.045000000000009      38.300000000000004
   294   1      11.490000000000004      42.130000000000003      42.130000000000003
   295   1      11.490000000000004      44.045000000000009      44.045000000000009
   296   1      13.405000000000001      42.130000000000003      44.045000000000009
   297   1      13.405000000000001      44.045000000000009      42.130000000000003
   298   1      11.490000000000004      42.130000000000003      45.960000000000008
   299   1      11.490000000000004      44.045000000000009                  47.875
   300   1      13.405000000000001      42.130000000000003                  47.875
   301   1      13.405000000000001      44.045000000000009      45.960000000000008
   302   1      11.490000000000004      42.130000000000003      49.790000000000006
   303   1      11.490000000000004      44.045000000000009      51.705000000000005
   304   1      13.405000000000001      42.130000000000003      51.705000000000005
   305   1      13.405000000000001      44.045000000000009      49.790000000000006
   306   1      11.490000000000004      42.130000000000003      53.620000000000005
   307   1      11.490000000000004      44.045000000000009      55.535000000000011
   308   1      13.405000000000001      42.130000000000003      55.535000000000011
   309   1      13.405000000000001      44.045000000000009      53.620000000000005
   310   1      11.490000000000004      42.130000000000003       57.45000000000001
   311   1      11.490000000000004      44.045000000000009      59.365000000000009
   312   1      13.405000000000001      42.130000000000003      59.365000000000009
   313   1      13.405000000000001      44.045000000000009       57.45000000000001
   314   1      11.490000000000004      42.130000000000003      61.280000000000008
   315   1      11.490000000000004      44.045000000000009      63.195000000000007
   316   1      13.405000000000001      42.130000000000003      63.195000000000007
   317   1      13.405000000000001      44.045000000000009      61.280000000000008
   318   1      11.490000000000004      42.130000000000003      65.110000000000014
   319   1      11.490000000000004      44.045000000000009      67.025000000000006
   320   1      13.405000000000001      42.130000000000003      67.025000000000006
   321   1      13.405000000000001      44.045000000000009      65.110000000000014
   322   1      11.490000000000004      42.130000000000003      68.939999999999998
   323   1      13.405000000000001      42.130000000000003      70.855000000000004
   324   1      13.405000000000001      44.045000000000009      68.939999999999998
   325   1      13.405000000000001      45.960000000000008      36.384999999999998
   326   1      11.490000000000004      45.960000000000008      38.300000000000004
   327   1      11.490000000000004                  47.875      40.215000000000003
   328   1      13.405000000000001      45.960000000000008      40.215000000000003
   329   1      13.405000000000001                  47.875      38.300000000000004
   330   1      11.490000000000004      45.960000000000008      42.130000000000003
   331   1      11.490000000000004                  47.875      44.045000000000009
   332   1      13.405000000000001      45.960000000000008      44.045000000000009
   333   1      13.405000000000001                  47.875      42.130000000000003
   334   1      11.490000000000004      45.960000000000008      45.960000000000008
   335   1      11.490000000000004                  47.875                  47.875
   336   1      13.405000000000001      45.960000000000008                  47.875
   337   1      13.405000000000001                  47.875      45.960000000000008
   338   1      11.490000000000004      45.960000000000008      49.790000000000006
   339   1      11.490000000000004                  47.875      51.705000000000005
   340   1      13.405000000000001      45.960000000000008      51.705000000000005
   341   1      13.405000000000001                  47.875      49.790000000000006
   342   1      11.490000000000004      45.960000000000008      53.620000000000005
   343   1      11.490000000000004                  47.875      55.535000000000011
   344   1      13.405000000000001      45.960000000000008      55.535000000000011
   345   1      13.405000000000001                  47.875      53.620000000000005
   346   1      11.490000000000004      45.960000000000008       57.45000000000001
   347   1      11.490000000000004                  47.875      59.365000000000009
   348   1      13.405000000000001      45.960000000000008      59.365000000000009
   349   1      13.405000000000001                  47.875       57.45000000000001
   350   1      11.490000000000004      45.960000000000008      61.280000000000008
   351   1      11.490000000000004                  47.875      63.195000000000007
   352   1      13.405000000000001      45.960000000000008      63.195000000000007
   353   1      13.405000000000001                  47.875      61.280000000000008
   354   1      11.490000000000004      45.960000000000008      65.110000000000014
   355   1      11.490000000000004                  47.875      67.025000000000006
   356   1      13.405000000000001      45.960000000000008      67.025000000000006
   357   1      13.405000000000001                  47.875      65.110000000000014
   358   1      11.490000000000004      45.960000000000008      68.939999999999998