model_files/PdCu/PdCu_30000/PdCu_322/PdCu_322_fcc_30187_temp.data (written by ASE) 

30187 	 atoms 
2  atom types
0.0                     115  xlo xhi
0.0                     115  ylo yhi
0.0                     115  zlo zhi


Atoms 

     1   1      1.8874999999999957      54.737499999999997      56.624999999999993
     2   1      1.8874999999999957      56.624999999999993      54.737499999999997
     3   1      114.99999999999999      56.624999999999993      56.624999999999993
     4   1      1.8874999999999957      56.624999999999993      58.512500000000003
     5   1      1.8874999999999957      58.512500000000003      56.624999999999993
     6   1      5.6624999999999943      47.187499999999993      56.624999999999993
     7   1      3.7749999999999915      50.962499999999999      54.737499999999997
     8   1      5.6624999999999943      49.074999999999996      54.737499999999997
     9   1      5.6624999999999943      50.962499999999999      52.849999999999994
    10   1      3.7749999999999915      49.074999999999996      56.624999999999993
    11   1      3.7749999999999915      50.962499999999999      58.512500000000003
    12   1      5.6624999999999943      49.074999999999996      58.512500000000003
    13   1      5.6624999999999943      50.962499999999999      56.624999999999993
    14   1      5.6624999999999943      50.962499999999999      60.399999999999991
    15   1      3.7749999999999915      54.737499999999997      50.962499999999999
    16   1      5.6624999999999943      52.849999999999994      50.962499999999999
    17   1      5.6624999999999943      54.737499999999997      49.074999999999996
    18   1      3.7749999999999915      52.849999999999994      52.849999999999994
    19   1      3.7749999999999915      54.737499999999997      54.737499999999997
    20   1      5.6624999999999943      52.849999999999994      54.737499999999997
    21   1      5.6624999999999943      54.737499999999997      52.849999999999994
    22   1      3.7749999999999915      52.849999999999994      56.624999999999993
    23   1      3.7749999999999915      54.737499999999997      58.512500000000003
    24   1      5.6624999999999943      52.849999999999994      58.512500000000003
    25   1      5.6624999999999943      54.737499999999997      56.624999999999993
    26   1      3.7749999999999915      52.849999999999994      60.399999999999991
    27   1      3.7749999999999915      54.737499999999997      62.287499999999994
    28   1      5.6624999999999943      52.849999999999994      62.287499999999994
    29   1      5.6624999999999943      54.737499999999997      60.399999999999991
    30   1      5.6624999999999943      54.737499999999997      64.174999999999997
    31   1      5.6624999999999943      56.624999999999993      47.187499999999993
    32   1      3.7749999999999915      56.624999999999993      49.074999999999996
    33   1      3.7749999999999915      58.512500000000003      50.962499999999999
    34   1      5.6624999999999943      56.624999999999993      50.962499999999999
    35   1      5.6624999999999943      58.512500000000003      49.074999999999996
    36   1      3.7749999999999915      56.624999999999993      52.849999999999994
    37   1      3.7749999999999915      58.512500000000003      54.737499999999997
    38   1      5.6624999999999943      56.624999999999993      54.737499999999997
    39   1      5.6624999999999943      58.512500000000003      52.849999999999994
    40   1      3.7749999999999915      56.624999999999993      56.624999999999993
    41   1      3.7749999999999915      58.512500000000003      58.512500000000003
    42   1      5.6624999999999943      56.624999999999993      58.512500000000003
    43   1      5.6624999999999943      58.512500000000003      56.624999999999993
    44   1      3.7749999999999915      56.624999999999993      60.399999999999991
    45   1      3.7749999999999915      58.512500000000003      62.287499999999994
    46   1      5.6624999999999943      56.624999999999993      62.287499999999994
    47   1      5.6624999999999943      58.512500000000003      60.399999999999991
    48   1      3.7749999999999915      56.624999999999993      64.174999999999997
    49   1      5.6624999999999943      56.624999999999993                 66.0625
    50   1      5.6624999999999943      58.512500000000003      64.174999999999997
    51   1      5.6624999999999943      60.399999999999991      50.962499999999999
    52   1      3.7749999999999915      60.399999999999991      52.849999999999994
    53   1      3.7749999999999915      62.287499999999994      54.737499999999997
    54   1      5.6624999999999943      60.399999999999991      54.737499999999997
    55   1      5.6624999999999943      62.287499999999994      52.849999999999994
    56   1      3.7749999999999915      60.399999999999991      56.624999999999993
    57   1      3.7749999999999915      62.287499999999994      58.512500000000003
    58   1      5.6624999999999943      60.399999999999991      58.512500000000003
    59   1      5.6624999999999943      62.287499999999994      56.624999999999993
    60   1      3.7749999999999915      60.399999999999991      60.399999999999991
    61   1      5.6624999999999943      60.399999999999991      62.287499999999994
    62   1      5.6624999999999943      62.287499999999994      60.399999999999991
    63   1      5.6624999999999943      64.174999999999997      54.737499999999997
    64   1      3.7749999999999915      64.174999999999997      56.624999999999993
    65   1      5.6624999999999943      64.174999999999997      58.512500000000003
    66   1      5.6624999999999943                 66.0625      56.624999999999993
    67   1      9.4374999999999929      43.412499999999994      56.624999999999993
    68   1      7.5499999999999909      47.187499999999993      54.737499999999997
    69   1      9.4374999999999929       45.29999999999999      54.737499999999997
    70   1      9.4374999999999929      47.187499999999993      52.849999999999994
    71   1      7.5499999999999909       45.29999999999999      56.624999999999993
    72   1      7.5499999999999909      47.187499999999993      58.512500000000003
    73   1      9.4374999999999929       45.29999999999999      58.512500000000003
    74   1      9.4374999999999929      47.187499999999993      56.624999999999993
    75   1      9.4374999999999929      47.187499999999993      60.399999999999991
    76   1      7.5499999999999909      50.962499999999999      50.962499999999999
    77   1      9.4374999999999929      49.074999999999996      50.962499999999999
    78   1      9.4374999999999929      50.962499999999999      49.074999999999996
    79   1      7.5499999999999909      49.074999999999996      52.849999999999994
    80   1      7.5499999999999909      50.962499999999999      54.737499999999997
    81   1      9.4374999999999929      49.074999999999996      54.737499999999997
    82   1      9.4374999999999929      50.962499999999999      52.849999999999994
    83   1      7.5499999999999909      49.074999999999996      56.624999999999993
    84   1      7.5499999999999909      50.962499999999999      58.512500000000003
    85   1      9.4374999999999929      49.074999999999996      58.512500000000003
    86   1      9.4374999999999929      50.962499999999999      56.624999999999993
    87   1      7.5499999999999909      49.074999999999996      60.399999999999991
    88   1      7.5499999999999909      50.962499999999999      62.287499999999994
    89   1      9.4374999999999929      49.074999999999996      62.287499999999994
    90   1      9.4374999999999929      50.962499999999999      60.399999999999991
    91   1      9.4374999999999929      50.962499999999999      64.174999999999997
    92   1      7.5499999999999909      54.737499999999997      47.187499999999993
    93   1      9.4374999999999929      52.849999999999994      47.187499999999993
    94   1      9.4374999999999929      54.737499999999997       45.29999999999999
    95   1      7.5499999999999909      52.849999999999994      49.074999999999996
    96   1      7.5499999999999909      54.737499999999997      50.962499999999999
    97   1      9.4374999999999929      52.849999999999994      50.962499999999999
    98   1      9.4374999999999929      54.737499999999997      49.074999999999996
    99   1      7.5499999999999909      52.849999999999994      52.849999999999994
   100   1      7.5499999999999909      54.737499999999997      54.737499999999997
   101   1      9.4374999999999929      52.849999999999994      54.737499999999997
   102   1      9.4374999999999929      54.737499999999997      52.849999999999994
   103   1      7.5499999999999909      52.849999999999994      56.624999999999993
   104   1      7.5499999999999909      54.737499999999997      58.512500000000003
   105   1      9.4374999999999929      52.849999999999994      58.512500000000003
   106   1      9.4374999999999929      54.737499999999997      56.624999999999993
   107   1      7.5499999999999909      52.849999999999994      60.399999999999991
   108   1      7.5499999999999909      54.737499999999997      62.287499999999994
   109   1      9.4374999999999929      52.849999999999994      62.287499999999994
   110   1      9.4374999999999929      54.737499999999997      60.399999999999991
   111   1      7.5499999999999909      52.849999999999994      64.174999999999997
   112   1      7.5499999999999909      54.737499999999997                 66.0625
   113   1      9.4374999999999929      52.849999999999994                 66.0625
   114   1      9.4374999999999929      54.737499999999997      64.174999999999997
   115   1      9.4374999999999929      54.737499999999997      67.949999999999989
   116   1      9.4374999999999929      56.624999999999993      43.412499999999994
   117   1      7.5499999999999909      56.624999999999993       45.29999999999999
   118   1      7.5499999999999909      58.512500000000003      47.187499999999993
   119   1      9.4374999999999929      56.624999999999993      47.187499999999993
   120   1      9.4374999999999929      58.512500000000003       45.29999999999999
   121   1      7.5499999999999909      56.624999999999993      49.074999999999996
   122   1      7.5499999999999909      58.512500000000003      50.962499999999999
   123   1      9.4374999999999929      56.624999999999993      50.962499999999999
   124   1      9.4374999999999929      58.512500000000003      49.074999999999996
   125   1      7.5499999999999909      56.624999999999993      52.849999999999994
   126   1      7.5499999999999909      58.512500000000003      54.737499999999997
   127   1      9.4374999999999929      56.624999999999993      54.737499999999997
   128   1      9.4374999999999929      58.512500000000003      52.849999999999994
   129   1      7.5499999999999909      56.624999999999993      56.624999999999993
   130   1      7.5499999999999909      58.512500000000003      58.512500000000003
   131   1      9.4374999999999929      56.624999999999993      58.512500000000003
   132   1      9.4374999999999929      58.512500000000003      56.624999999999993
   133   1      7.5499999999999909      56.624999999999993      60.399999999999991
   134   1      7.5499999999999909      58.512500000000003      62.287499999999994
   135   1      9.4374999999999929      56.624999999999993      62.287499999999994
   136   1      9.4374999999999929      58.512500000000003      60.399999999999991
   137   1      7.5499999999999909      56.624999999999993      64.174999999999997
   138   1      7.5499999999999909      58.512500000000003                 66.0625
   139   1      9.4374999999999929      56.624999999999993                 66.0625
   140   1      9.4374999999999929      58.512500000000003      64.174999999999997
   141   1      7.5499999999999909      56.624999999999993      67.949999999999989
   142   1      9.4374999999999929      56.624999999999993      69.837499999999991
   143   1      9.4374999999999929      58.512500000000003      67.949999999999989
   144   1      9.4374999999999929      60.399999999999991      47.187499999999993
   145   1      7.5499999999999909      60.399999999999991      49.074999999999996
   146   1      7.5499999999999909      62.287499999999994      50.962499999999999
   147   1      9.4374999999999929      60.399999999999991      50.962499999999999
   148   1      9.4374999999999929      62.287499999999994      49.074999999999996
   149   1      7.5499999999999909      60.399999999999991      52.849999999999994
   150   1      7.5499999999999909      62.287499999999994      54.737499999999997
   151   1      9.4374999999999929      60.399999999999991      54.737499999999997
   152   1      9.4374999999999929      62.287499999999994      52.849999999999994
   153   1      7.5499999999999909      60.399999999999991      56.624999999999993
   154   1      7.5499999999999909      62.287499999999994      58.512500000000003
   155   1      9.4374999999999929      60.399999999999991      58.512500000000003
   156   1      9.4374999999999929      62.287499999999994      56.624999999999993
   157   1      7.5499999999999909      60.399999999999991      60.399999999999991
   158   1      7.5499999999999909      62.287499999999994      62.287499999999994
   159   1      9.4374999999999929      60.399999999999991      62.287499999999994
   160   1      9.4374999999999929      62.287499999999994      60.399999999999991
   161   1      7.5499999999999909      60.399999999999991      64.174999999999997
   162   1      9.4374999999999929      60.399999999999991                 66.0625
   163   1      9.4374999999999929      62.287499999999994      64.174999999999997
   164   1      9.4374999999999929      64.174999999999997      50.962499999999999
   165   1      7.5499999999999909      64.174999999999997      52.849999999999994
   166   1      7.5499999999999909                 66.0625      54.737499999999997
   167   1      9.4374999999999929      64.174999999999997      54.737499999999997
   168   1      9.4374999999999929                 66.0625      52.849999999999994
   169   1      7.5499999999999909      64.174999999999997      56.624999999999993
   170   1      7.5499999999999909                 66.0625      58.512500000000003
   171   1      9.4374999999999929      64.174999999999997      58.512500000000003
   172   1      9.4374999999999929                 66.0625      56.624999999999993
   173   1      7.5499999999999909      64.174999999999997      60.399999999999991
   174   1      9.4374999999999929      64.174999999999997      62.287499999999994
   175   1      9.4374999999999929                 66.0625      60.399999999999991
   176   1      9.4374999999999929      67.949999999999989      54.737499999999997
   177   1      7.5499999999999909      67.949999999999989      56.624999999999993
   178   1      9.4374999999999929      67.949999999999989      58.512500000000003
   179   1      9.4374999999999929      69.837499999999991      56.624999999999993
   180   1      13.212499999999999      35.862499999999997      56.624999999999993
   181   1      11.324999999999996      39.637499999999996      54.737499999999997
   182   1      13.212499999999999      37.749999999999993      54.737499999999997
   183   1      13.212499999999999      39.637499999999996      52.849999999999994
   184   1      11.324999999999996      37.749999999999993      56.624999999999993
   185   1      11.324999999999996      39.637499999999996      58.512500000000003
   186   1      13.212499999999999      37.749999999999993      58.512500000000003
   187   1      13.212499999999999      39.637499999999996      56.624999999999993
   188   1      13.212499999999999      39.637499999999996      60.399999999999991
   189   1      11.324999999999996      43.412499999999994      50.962499999999999
   190   1      13.212499999999999      41.524999999999991      50.962499999999999
   191   1      13.212499999999999      43.412499999999994      49.074999999999996
   192   1      11.324999999999996      41.524999999999991      52.849999999999994
   193   1      11.324999999999996      43.412499999999994      54.737499999999997
   194   1      13.212499999999999      41.524999999999991      54.737499999999997
   195   1      13.212499999999999      43.412499999999994      52.849999999999994
   196   1      11.324999999999996      41.524999999999991      56.624999999999993
   197   1      11.324999999999996      43.412499999999994      58.512500000000003
   198   1      13.212499999999999      41.524999999999991      58.512500000000003
   199   1      13.212499999999999      43.412499999999994      56.624999999999993
   200   1      11.324999999999996      41.524999999999991      60.399999999999991
   201   1      11.324999999999996      43.412499999999994      62.287499999999994
   202   1      13.212499999999999      41.524999999999991      62.287499999999994
   203   1      13.212499999999999      43.412499999999994      60.399999999999991
   204   1      13.212499999999999      43.412499999999994      64.174999999999997
   205   1      11.324999999999996      47.187499999999993      47.187499999999993
   206   1      13.212499999999999       45.29999999999999      47.187499999999993
   207   1      13.212499999999999      47.187499999999993       45.29999999999999
   208   1      11.324999999999996       45.29999999999999      49.074999999999996
   209   1      11.324999999999996      47.187499999999993      50.962499999999999
   210   1      13.212499999999999       45.29999999999999      50.962499999999999
   211   1      13.212499999999999      47.187499999999993      49.074999999999996
   212   1      11.324999999999996       45.29999999999999      52.849999999999994
   213   1      11.324999999999996      47.187499999999993      54.737499999999997
   214   1      13.212499999999999       45.29999999999999      54.737499999999997
   215   1      13.212499999999999      47.187499999999993      52.849999999999994
   216   1      11.324999999999996       45.29999999999999      56.624999999999993
   217   1      11.324999999999996      47.187499999999993      58.512500000000003
   218   1      13.212499999999999       45.29999999999999      58.512500000000003
   219   1      13.212499999999999      47.187499999999993      56.624999999999993
   220   1      11.324999999999996       45.29999999999999      60.399999999999991
   221   1      11.324999999999996      47.187499999999993      62.287499999999994
   222   1      13.212499999999999       45.29999999999999      62.287499999999994
   223   1      13.212499999999999      47.187499999999993      60.399999999999991
   224   1      11.324999999999996       45.29999999999999      64.174999999999997
   225   1      11.324999999999996      47.187499999999993                 66.0625
   226   1      13.212499999999999       45.29999999999999                 66.0625
   227   1      13.212499999999999      47.187499999999993      64.174999999999997
   228   1      13.212499999999999      47.187499999999993      67.949999999999989
   229   1      11.324999999999996      50.962499999999999      43.412499999999994
   230   1      13.212499999999999      49.074999999999996      43.412499999999994
   231   1      13.212499999999999      50.962499999999999      41.524999999999991
   232   1      11.324999999999996      49.074999999999996       45.29999999999999
   233   1      11.324999999999996      50.962499999999999      47.187499999999993
   234   1      13.212499999999999      49.074999999999996      47.187499999999993
   235   1      13.212499999999999      50.962499999999999       45.29999999999999
   236   1      11.324999999999996      49.074999999999996      49.074999999999996
   237   1      11.324999999999996      50.962499999999999      50.962499999999999
   238   1      13.212499999999999      49.074999999999996      50.962499999999999
   239   1      13.212499999999999      50.962499999999999      49.074999999999996
   240   1      11.324999999999996      49.074999999999996      52.849999999999994
   241   1      11.324999999999996      50.962499999999999      54.737499999999997
   242   1      13.212499999999999      49.074999999999996      54.737499999999997
   243   1      13.212499999999999      50.962499999999999      52.849999999999994
   244   1      11.324999999999996      49.074999999999996      56.624999999999993
   245   1      11.324999999999996      50.962499999999999      58.512500000000003
   246   1      13.212499999999999      49.074999999999996      58.512500000000003
   247   1      13.212499999999999      50.962499999999999      56.624999999999993
   248   1      11.324999999999996      49.074999999999996      60.399999999999991
   249   1      11.324999999999996      50.962499999999999      62.287499999999994
   250   1      13.212499999999999      49.074999999999996      62.287499999999994
   251   1      13.212499999999999      50.962499999999999      60.399999999999991
   252   1      11.324999999999996      49.074999999999996      64.174999999999997
   253   1      11.324999999999996      50.962499999999999                 66.0625
   254   1      13.212499999999999      49.074999999999996                 66.0625
   255   1      13.212499999999999      50.962499999999999      64.174999999999997
   256   1      11.324999999999996      49.074999999999996      67.949999999999989
   257   1      11.324999999999996      50.962499999999999      69.837499999999991
   258   1      13.212499999999999      49.074999999999996      69.837499999999991
   259   1      13.212499999999999      50.962499999999999      67.949999999999989
   260   1      13.212499999999999      50.962499999999999      71.724999999999994
   261   1      11.324999999999996      54.737499999999997      39.637499999999996
   262   1      13.212499999999999      52.849999999999994      39.637499999999996
   263   1      13.212499999999999      54.737499999999997      37.749999999999993
   264   1      11.324999999999996      52.849999999999994      41.524999999999991
   265   1      11.324999999999996      54.737499999999997      43.412499999999994
   266   1      13.212499999999999      52.849999999999994      43.412499999999994
   267   1      13.212499999999999      54.737499999999997      41.524999999999991
   268   1      11.324999999999996      52.849999999999994       45.29999999999999
   269   1      11.324999999999996      54.737499999999997      47.187499999999993
   270   1      13.212499999999999      52.849999999999994      47.187499999999993
   271   1      13.212499999999999      54.737499999999997       45.29999999999999
   272   1      11.324999999999996      52.849999999999994      49.074999999999996
   273   1      11.324999999999996      54.737499999999997      50.962499999999999
   274   1      13.212499999999999      52.849999999999994      50.962499999999999
   275   1      13.212499999999999      54.737499999999997      49.074999999999996
   276   1      11.324999999999996      52.849999999999994      52.849999999999994
   277   1      11.324999999999996      54.737499999999997      54.737499999999997
   278   1      13.212499999999999      52.849999999999994      54.737499999999997
   279   1      13.212499999999999      54.737499999999997      52.849999999999994
   280   1      11.324999999999996      52.849999999999994      56.624999999999993
   281   1      11.324999999999996      54.737499999999997      58.512500000000003
   282   1      13.212499999999999      52.849999999999994      58.512500000000003
   283   1      13.212499999999999      54.737499999999997      56.624999999999993
   284   1      11.324999999999996      52.849999999999994      60.399999999999991
   285   1      11.324999999999996      54.737499999999997      62.287499999999994
   286   1      13.212499999999999      52.849999999999994      62.287499999999994
   287   1      13.212499999999999      54.737499999999997      60.399999999999991
   288   1      11.324999999999996      52.849999999999994      64.174999999999997
   289   1      11.324999999999996      54.737499999999997                 66.0625
   290   1      13.212499999999999      52.849999999999994                 66.0625
   291   1      13.212499999999999      54.737499999999997      64.174999999999997
   292   1      11.324999999999996      52.849999999999994      67.949999999999989
   293   1      11.324999999999996      54.737499999999997      69.837499999999991
   294   1      13.212499999999999      52.849999999999994      69.837499999999991
   295   1      13.212499999999999      54.737499999999997      67.949999999999989
   296   1      11.324999999999996      52.849999999999994      71.724999999999994
   297   1      11.324999999999996      54.737499999999997      73.612499999999997
   298   1      13.212499999999999      52.849999999999994      73.612499999999997
   299   1      13.212499999999999      54.737499999999997      71.724999999999994
   300   1      13.212499999999999      54.737499999999997      75.499999999999986
   301   1      13.212499999999999      56.624999999999993      35.862499999999997
   302   1      11.324999999999996      56.624999999999993      37.749999999999993
   303   1      11.324999999999996      58.512500000000003      39.637499999999996
   304   1      13.212499999999999      56.624999999999993      39.637499999999996
   305   1      13.212499999999999      58.512500000000003      37.749999999999993
   306   1      11.324999999999996      56.624999999999993      41.524999999999991
   307   1      11.324999999999996      58.512500000000003      43.412499999999994
   308   1      13.212499999999999      56.624999999999993      43.412499999999994
   309   1      13.212499999999999      58.512500000000003      41.524999999999991
   310   1      11.324999999999996      56.624999999999993       45.29999999999999
   311   1      11.324999999999996      58.512500000000003      47.187499999999993
   312   1      13.212499999999999      56.624999999999993      47.187499999999993
   313   1      13.212499999999999      58.512500000000003       45.29999999999999
   314   1      11.324999999999996      56.624999999999993      49.074999999999996
   315   1      11.324999999999996      58.512500000000003      50.962499999999999
   316   1      13.212499999999999      56.624999999999993      50.962499999999999
   317   1      13.212499999999999      58.512500000000003      49.074999999999996
   318   1      11.324999999999996      56.624999999999993      52.849999999999994
   319   1      11.324999999999996      58.512500000000003      54.737499999999997
   320   1      13.212499999999999      56.624999999999993      54.737499999999997
   321   1      13.212499999999999      58.512500000000003      52.849999999999994
   322   1      11.324999999999996      56.624999999999993      56.624999999999993
   323   1      11.324999999999996      58.512500000000003      58.512500000000003
   324   1      13.212499999999999      56.624999999999993      58.512500000000003
   325   1      13.212499999999999      58.512500000000003      56.624999999999993
   326   1      11.324999999999996      56.624999999999993      60.399999999999991
   327   1      11.324999999999996      58.512500000000003      62.287499999999994
   328   1      13.212499999999999      56.624999999999993      62.287499999999994
   329   1      13.212499999999999      58.512500000000003      60.399999999999991
   330   1      11.324999999999996      56.624999999999993      64.174999999999997
   331   1      11.324999999999996      58.512500000000003                 66.0625
   332   1      13.212499999999999      56.624999999999993                 66.0625
   333   1      13.212499999999999      58.512500000000003      64.174999999999997
   334   1      11.324999999999996      56.624999999999993      67.949999999999989
   335   1      11.324999999999996      58.512500000000003      69.837499999999991
   336   1      13.212499999999999      56.624999999999993      69.837499999999991
   337   1      13.212499999999999      58.512500000000003      67.949999999999989
   338   1      11.324999999999996      56.624999999999993      71.724999999999994
   339   1      11.324999999999996      58.512500000000003      73.612499999999997
   340   1      13.212499999999999      56.624999999999993      73.612499999999997
   341   1      13.212499999999999      58.512500000000003      71.724999999999994
   342   1      11.324999999999996      56.624999999999993      75.499999999999986
   343   1      13.212499999999999      56.624999999999993      77.387499999999989
   344   1      13.212499999999999      58.512500000000003      75.499999999999986
   345   1      13.212499999999999      60.399999999999991      39.637499999999996
   346   1      11.324999999999996      60.399999999999991      41.524999999999991
   347   1      11.324999999999996      62.287499999999994      43.412499999999994
   348   1      13.212499999999999      60.399999999999991      43.412499999999994
   349   1      13.212499999999999      62.287499999999994      41.524999999999991
   350   1      11.324999999999996      60.399999999999991       45.29999999999999
   351   1      11.324999999999996      62.287499999999994      47.187499999999993
   352   1      13.212499999999999      60.399999999999991      47.187499999999993
   353   1      13.212499999999999      62.287499999999994       45.29999999999999
   354   1      11.324999999999996      60.399999999999991      49.074999999999996
   355   1      11.324999999999996      62.287499999999994      50.962499999999999
   356   1      13.212499999999999      60.399999999999991      50.962499999999999
   357   1      13.212499999999999      62.287499999999994      49.074999999999996
   358   1      11.324999999999996      60.399999999999991      52.849999999999994