model_files/CuFeNi/CuFeNi_30000/CuFeNi_543/CuFeNi_543_fcc_30079_temp.data (written by ASE) 

30079 	 atoms 
3  atom types
0.0                     119  xlo xhi
0.0                     119  ylo yhi
0.0                     119  zlo zhi


Atoms 

     1   1  7.1054273576010019e-15      56.999999999999993      58.899999999999999
     2   1  7.1054273576010019e-15      58.899999999999999      56.999999999999993
     3   1  7.1054273576010019e-15      58.899999999999999      60.799999999999997
     4   1  7.1054273576010019e-15      60.799999999999997      58.899999999999999
     5   1      3.8000000000000038      53.199999999999996      58.899999999999999
     6   1      1.9000000000000057      56.999999999999993      56.999999999999993
     7   1      3.8000000000000038      55.099999999999994      56.999999999999993
     8   1      3.8000000000000038      56.999999999999993      55.099999999999994
     9   1      1.9000000000000057      55.099999999999994      58.899999999999999
    10   1      1.9000000000000057      56.999999999999993      60.799999999999997
    11   1      3.8000000000000038      55.099999999999994      60.799999999999997
    12   1      3.8000000000000038      56.999999999999993      58.899999999999999
    13   1      3.8000000000000038      56.999999999999993      62.700000000000003
    14   1      3.8000000000000038      58.899999999999999      53.199999999999996
    15   1      1.9000000000000057      58.899999999999999      55.099999999999994
    16   1      1.9000000000000057      60.799999999999997      56.999999999999993
    17   1      3.8000000000000038      58.899999999999999      56.999999999999993
    18   1      3.8000000000000038      60.799999999999997      55.099999999999994
    19   1      1.9000000000000057      58.899999999999999      58.899999999999999
    20   1      1.9000000000000057      60.799999999999997      60.799999999999997
    21   1      3.8000000000000038      58.899999999999999      60.799999999999997
    22   1      3.8000000000000038      60.799999999999997      58.899999999999999
    23   1      1.9000000000000057      58.899999999999999      62.700000000000003
    24   1      3.8000000000000038      58.899999999999999      64.600000000000009
    25   1      3.8000000000000038      60.799999999999997      62.700000000000003
    26   1      3.8000000000000038      62.700000000000003      56.999999999999993
    27   1      1.9000000000000057      62.700000000000003      58.899999999999999
    28   1      3.8000000000000038      62.700000000000003      60.799999999999997
    29   1      3.8000000000000038      64.600000000000009      58.899999999999999
    30   1      7.6000000000000076      49.399999999999999      58.899999999999999
    31   1      5.7000000000000091      53.199999999999996      56.999999999999993
    32   1      7.6000000000000076      51.299999999999997      56.999999999999993
    33   1      7.6000000000000076      53.199999999999996      55.099999999999994
    34   1      5.7000000000000091      51.299999999999997      58.899999999999999
    35   1      5.7000000000000091      53.199999999999996      60.799999999999997
    36   1      7.6000000000000076      51.299999999999997      60.799999999999997
    37   1      7.6000000000000076      53.199999999999996      58.899999999999999
    38   1      7.6000000000000076      53.199999999999996      62.700000000000003
    39   1      5.7000000000000091      56.999999999999993      53.199999999999996
    40   1      7.6000000000000076      55.099999999999994      53.199999999999996
    41   1      7.6000000000000076      56.999999999999993      51.299999999999997
    42   1      5.7000000000000091      55.099999999999994      55.099999999999994
    43   1      5.7000000000000091      56.999999999999993      56.999999999999993
    44   1      7.6000000000000076      55.099999999999994      56.999999999999993
    45   1      7.6000000000000076      56.999999999999993      55.099999999999994
    46   1      5.7000000000000091      55.099999999999994      58.899999999999999
    47   1      5.7000000000000091      56.999999999999993      60.799999999999997
    48   1      7.6000000000000076      55.099999999999994      60.799999999999997
    49   1      7.6000000000000076      56.999999999999993      58.899999999999999
    50   1      5.7000000000000091      55.099999999999994      62.700000000000003
    51   1      5.7000000000000091      56.999999999999993      64.600000000000009
    52   1      7.6000000000000076      55.099999999999994      64.600000000000009
    53   1      7.6000000000000076      56.999999999999993      62.700000000000003
    54   1      7.6000000000000076      56.999999999999993                    66.5
    55   1      7.6000000000000076      58.899999999999999      49.399999999999999
    56   1      5.7000000000000091      58.899999999999999      51.299999999999997
    57   1      5.7000000000000091      60.799999999999997      53.199999999999996
    58   1      7.6000000000000076      58.899999999999999      53.199999999999996
    59   1      7.6000000000000076      60.799999999999997      51.299999999999997
    60   1      5.7000000000000091      58.899999999999999      55.099999999999994
    61   1      5.7000000000000091      60.799999999999997      56.999999999999993
    62   1      7.6000000000000076      58.899999999999999      56.999999999999993
    63   1      7.6000000000000076      60.799999999999997      55.099999999999994
    64   1      5.7000000000000091      58.899999999999999      58.899999999999999
    65   1      5.7000000000000091      60.799999999999997      60.799999999999997
    66   1      7.6000000000000076      58.899999999999999      60.799999999999997
    67   1      7.6000000000000076      60.799999999999997      58.899999999999999
    68   1      5.7000000000000091      58.899999999999999      62.700000000000003
    69   1      5.7000000000000091      60.799999999999997      64.600000000000009
    70   1      7.6000000000000076      58.899999999999999      64.600000000000009
    71   1      7.6000000000000076      60.799999999999997      62.700000000000003
    72   1      5.7000000000000091      58.899999999999999                    66.5
    73   1      7.6000000000000076      58.899999999999999      68.400000000000006
    74   1      7.6000000000000076      60.799999999999997                    66.5
    75   1      7.6000000000000076      62.700000000000003      53.199999999999996
    76   1      5.7000000000000091      62.700000000000003      55.099999999999994
    77   1      5.7000000000000091      64.600000000000009      56.999999999999993
    78   1      7.6000000000000076      62.700000000000003      56.999999999999993
    79   1      7.6000000000000076      64.600000000000009      55.099999999999994
    80   1      5.7000000000000091      62.700000000000003      58.899999999999999
    81   1      5.7000000000000091      64.600000000000009      60.799999999999997
    82   1      7.6000000000000076      62.700000000000003      60.799999999999997
    83   1      7.6000000000000076      64.600000000000009      58.899999999999999
    84   1      5.7000000000000091      62.700000000000003      62.700000000000003
    85   1      7.6000000000000076      62.700000000000003      64.600000000000009
    86   1      7.6000000000000076      64.600000000000009      62.700000000000003
    87   1      7.6000000000000076                    66.5      56.999999999999993
    88   1      5.7000000000000091                    66.5      58.899999999999999
    89   1      7.6000000000000076                    66.5      60.799999999999997
    90   1      7.6000000000000076      68.400000000000006      58.899999999999999
    91   1      11.400000000000006      45.599999999999994      55.099999999999994
    92   1      11.400000000000006      45.599999999999994      58.899999999999999
    93   1      11.400000000000006      45.599999999999994      62.700000000000003
    94   1      9.5000000000000053      49.399999999999999      53.199999999999996
    95   1      11.400000000000006      47.499999999999993      53.199999999999996
    96   1      11.400000000000006      49.399999999999999      51.299999999999997
    97   1      9.5000000000000053      49.399999999999999      56.999999999999993
    98   1      11.400000000000006      47.499999999999993      56.999999999999993
    99   1      11.400000000000006      49.399999999999999      55.099999999999994
   100   1      9.5000000000000053      47.499999999999993      58.899999999999999
   101   1      9.5000000000000053      49.399999999999999      60.799999999999997
   102   1      11.400000000000006      47.499999999999993      60.799999999999997
   103   1      11.400000000000006      49.399999999999999      58.899999999999999
   104   1      9.5000000000000053      49.399999999999999      64.600000000000009
   105   1      11.400000000000006      47.499999999999993      64.600000000000009
   106   1      11.400000000000006      49.399999999999999      62.700000000000003
   107   1      11.400000000000006      49.399999999999999                    66.5
   108   1      9.5000000000000053      53.199999999999996      49.399999999999999
   109   1      11.400000000000006      51.299999999999997      49.399999999999999
   110   1      11.400000000000006      53.199999999999996      47.499999999999993
   111   1      9.5000000000000053      51.299999999999997      51.299999999999997
   112   1      9.5000000000000053      53.199999999999996      53.199999999999996
   113   1      11.400000000000006      51.299999999999997      53.199999999999996
   114   1      11.400000000000006      53.199999999999996      51.299999999999997
   115   1      9.5000000000000053      51.299999999999997      55.099999999999994
   116   1      9.5000000000000053      53.199999999999996      56.999999999999993
   117   1      11.400000000000006      51.299999999999997      56.999999999999993
   118   1      11.400000000000006      53.199999999999996      55.099999999999994
   119   1      9.5000000000000053      51.299999999999997      58.899999999999999
   120   1      9.5000000000000053      53.199999999999996      60.799999999999997
   121   1      11.400000000000006      51.299999999999997      60.799999999999997
   122   1      11.400000000000006      53.199999999999996      58.899999999999999
   123   1      9.5000000000000053      51.299999999999997      62.700000000000003
   124   1      9.5000000000000053      53.199999999999996      64.600000000000009
   125   1      11.400000000000006      51.299999999999997      64.600000000000009
   126   1      11.400000000000006      53.199999999999996      62.700000000000003
   127   1      9.5000000000000053      51.299999999999997                    66.5
   128   1      9.5000000000000053      53.199999999999996      68.400000000000006
   129   1      11.400000000000006      51.299999999999997      68.400000000000006
   130   1      11.400000000000006      53.199999999999996                    66.5
   131   1      11.400000000000006      53.199999999999996      70.299999999999983
   132   1      11.400000000000006      55.099999999999994      45.599999999999994
   133   1      9.5000000000000053      56.999999999999993      49.399999999999999
   134   1      11.400000000000006      55.099999999999994      49.399999999999999
   135   1      11.400000000000006      56.999999999999993      47.499999999999993
   136   1      9.5000000000000053      55.099999999999994      51.299999999999997
   137   1      9.5000000000000053      56.999999999999993      53.199999999999996
   138   1      11.400000000000006      55.099999999999994      53.199999999999996
   139   1      11.400000000000006      56.999999999999993      51.299999999999997
   140   1      9.5000000000000053      55.099999999999994      55.099999999999994
   141   1      9.5000000000000053      56.999999999999993      56.999999999999993
   142   1      11.400000000000006      55.099999999999994      56.999999999999993
   143   1      11.400000000000006      56.999999999999993      55.099999999999994
   144   1      9.5000000000000053      55.099999999999994      58.899999999999999
   145   1      9.5000000000000053      56.999999999999993      60.799999999999997
   146   1      11.400000000000006      55.099999999999994      60.799999999999997
   147   1      11.400000000000006      56.999999999999993      58.899999999999999
   148   1      9.5000000000000053      55.099999999999994      62.700000000000003
   149   1      9.5000000000000053      56.999999999999993      64.600000000000009
   150   1      11.400000000000006      55.099999999999994      64.600000000000009
   151   1      11.400000000000006      56.999999999999993      62.700000000000003
   152   1      9.5000000000000053      55.099999999999994                    66.5
   153   1      9.5000000000000053      56.999999999999993      68.400000000000006
   154   1      11.400000000000006      55.099999999999994      68.400000000000006
   155   1      11.400000000000006      56.999999999999993                    66.5
   156   1      11.400000000000006      55.099999999999994      72.199999999999989
   157   1      11.400000000000006      56.999999999999993      70.299999999999983
   158   1      11.400000000000006      58.899999999999999      45.599999999999994
   159   1      9.5000000000000053      58.899999999999999      47.499999999999993
   160   1      9.5000000000000053      60.799999999999997      49.399999999999999
   161   1      11.400000000000006      58.899999999999999      49.399999999999999
   162   1      11.400000000000006      60.799999999999997      47.499999999999993
   163   1      9.5000000000000053      58.899999999999999      51.299999999999997
   164   1      9.5000000000000053      60.799999999999997      53.199999999999996
   165   1      11.400000000000006      58.899999999999999      53.199999999999996
   166   1      11.400000000000006      60.799999999999997      51.299999999999997
   167   1      9.5000000000000053      58.899999999999999      55.099999999999994
   168   1      9.5000000000000053      60.799999999999997      56.999999999999993
   169   1      11.400000000000006      58.899999999999999      56.999999999999993
   170   1      11.400000000000006      60.799999999999997      55.099999999999994
   171   1      9.5000000000000053      58.899999999999999      58.899999999999999
   172   1      9.5000000000000053      60.799999999999997      60.799999999999997
   173   1      11.400000000000006      58.899999999999999      60.799999999999997
   174   1      11.400000000000006      60.799999999999997      58.899999999999999
   175   1      9.5000000000000053      58.899999999999999      62.700000000000003
   176   1      9.5000000000000053      60.799999999999997      64.600000000000009
   177   1      11.400000000000006      58.899999999999999      64.600000000000009
   178   1      11.400000000000006      60.799999999999997      62.700000000000003
   179   1      9.5000000000000053      58.899999999999999                    66.5
   180   1      9.5000000000000053      60.799999999999997      68.400000000000006
   181   1      11.400000000000006      58.899999999999999      68.400000000000006
   182   1      11.400000000000006      60.799999999999997                    66.5
   183   1      9.5000000000000053      58.899999999999999      70.299999999999983
   184   1      11.400000000000006      58.899999999999999      72.199999999999989
   185   1      11.400000000000006      60.799999999999997      70.299999999999983
   186   1      11.400000000000006      62.700000000000003      45.599999999999994
   187   1      9.5000000000000053      64.600000000000009      49.399999999999999
   188   1      11.400000000000006      62.700000000000003      49.399999999999999
   189   1      11.400000000000006      64.600000000000009      47.499999999999993
   190   1      9.5000000000000053      62.700000000000003      51.299999999999997
   191   1      9.5000000000000053      64.600000000000009      53.199999999999996
   192   1      11.400000000000006      62.700000000000003      53.199999999999996
   193   1      11.400000000000006      64.600000000000009      51.299999999999997
   194   1      9.5000000000000053      62.700000000000003      55.099999999999994
   195   1      9.5000000000000053      64.600000000000009      56.999999999999993
   196   1      11.400000000000006      62.700000000000003      56.999999999999993
   197   1      11.400000000000006      64.600000000000009      55.099999999999994
   198   1      9.5000000000000053      62.700000000000003      58.899999999999999
   199   1      9.5000000000000053      64.600000000000009      60.799999999999997
   200   1      11.400000000000006      62.700000000000003      60.799999999999997
   201   1      11.400000000000006      64.600000000000009      58.899999999999999
   202   1      9.5000000000000053      62.700000000000003      62.700000000000003
   203   1      9.5000000000000053      64.600000000000009      64.600000000000009
   204   1      11.400000000000006      62.700000000000003      64.600000000000009
   205   1      11.400000000000006      64.600000000000009      62.700000000000003
   206   1      9.5000000000000053      62.700000000000003                    66.5
   207   1      9.5000000000000053      64.600000000000009      68.400000000000006
   208   1      11.400000000000006      62.700000000000003      68.400000000000006
   209   1      11.400000000000006      64.600000000000009                    66.5
   210   1      11.400000000000006      62.700000000000003      72.199999999999989
   211   1      11.400000000000006      64.600000000000009      70.299999999999983
   212   1      11.400000000000006                    66.5      49.399999999999999
   213   1      9.5000000000000053                    66.5      51.299999999999997
   214   1      9.5000000000000053      68.400000000000006      53.199999999999996
   215   1      11.400000000000006                    66.5      53.199999999999996
   216   1      11.400000000000006      68.400000000000006      51.299999999999997
   217   1      9.5000000000000053                    66.5      55.099999999999994
   218   1      9.5000000000000053      68.400000000000006      56.999999999999993
   219   1      11.400000000000006                    66.5      56.999999999999993
   220   1      11.400000000000006      68.400000000000006      55.099999999999994
   221   1      9.5000000000000053                    66.5      58.899999999999999
   222   1      9.5000000000000053      68.400000000000006      60.799999999999997
   223   1      11.400000000000006                    66.5      60.799999999999997
   224   1      11.400000000000006      68.400000000000006      58.899999999999999
   225   1      9.5000000000000053                    66.5      62.700000000000003
   226   1      9.5000000000000053      68.400000000000006      64.600000000000009
   227   1      11.400000000000006                    66.5      64.600000000000009
   228   1      11.400000000000006      68.400000000000006      62.700000000000003
   229   1      9.5000000000000053                    66.5                    66.5
   230   1      11.400000000000006                    66.5      68.400000000000006
   231   1      11.400000000000006      68.400000000000006                    66.5
   232   1      11.400000000000006      70.299999999999983      53.199999999999996
   233   1      11.400000000000006      70.299999999999983      56.999999999999993
   234   1      11.400000000000006      72.199999999999989      55.099999999999994
   235   1      9.5000000000000053      70.299999999999983      58.899999999999999
   236   1      11.400000000000006      70.299999999999983      60.799999999999997
   237   1      11.400000000000006      72.199999999999989      58.899999999999999
   238   1      11.400000000000006      70.299999999999983      64.600000000000009
   239   1      11.400000000000006      72.199999999999989      62.700000000000003
   240   1      15.200000000000008                      38      58.899999999999999
   241   1      13.300000000000004      41.799999999999997      56.999999999999993
   242   1      15.200000000000008      39.899999999999999      56.999999999999993
   243   1      15.200000000000008      41.799999999999997      55.099999999999994
   244   1      13.300000000000004      41.799999999999997      60.799999999999997
   245   1      15.200000000000008      39.899999999999999      60.799999999999997
   246   1      15.200000000000008      41.799999999999997      58.899999999999999
   247   1      15.200000000000008      41.799999999999997      62.700000000000003
   248   1      13.300000000000004      45.599999999999994      53.199999999999996
   249   1      15.200000000000008      43.700000000000003      53.199999999999996
   250   1      15.200000000000008      45.599999999999994      51.299999999999997
   251   1      13.300000000000004      43.700000000000003      55.099999999999994
   252   1      13.300000000000004      45.599999999999994      56.999999999999993
   253   1      15.200000000000008      43.700000000000003      56.999999999999993
   254   1      15.200000000000008      45.599999999999994      55.099999999999994
   255   1      13.300000000000004      43.700000000000003      58.899999999999999
   256   1      13.300000000000004      45.599999999999994      60.799999999999997
   257   1      15.200000000000008      43.700000000000003      60.799999999999997
   258   1      15.200000000000008      45.599999999999994      58.899999999999999
   259   1      13.300000000000004      43.700000000000003      62.700000000000003
   260   1      13.300000000000004      45.599999999999994      64.600000000000009
   261   1      15.200000000000008      43.700000000000003      64.600000000000009
   262   1      15.200000000000008      45.599999999999994      62.700000000000003
   263   1      15.200000000000008      45.599999999999994                    66.5
   264   1      13.300000000000004      49.399999999999999      49.399999999999999
   265   1      15.200000000000008      47.499999999999993      49.399999999999999
   266   1      15.200000000000008      49.399999999999999      47.499999999999993
   267   1      13.300000000000004      47.499999999999993      51.299999999999997
   268   1      13.300000000000004      49.399999999999999      53.199999999999996
   269   1      15.200000000000008      47.499999999999993      53.199999999999996
   270   1      15.200000000000008      49.399999999999999      51.299999999999997
   271   1      13.300000000000004      47.499999999999993      55.099999999999994
   272   1      13.300000000000004      49.399999999999999      56.999999999999993
   273   1      15.200000000000008      47.499999999999993      56.999999999999993
   274   1      15.200000000000008      49.399999999999999      55.099999999999994
   275   1      13.300000000000004      47.499999999999993      58.899999999999999
   276   1      13.300000000000004      49.399999999999999      60.799999999999997
   277   1      15.200000000000008      47.499999999999993      60.799999999999997
   278   1      15.200000000000008      49.399999999999999      58.899999999999999
   279   1      13.300000000000004      47.499999999999993      62.700000000000003
   280   1      13.300000000000004      49.399999999999999      64.600000000000009
   281   1      15.200000000000008      47.499999999999993      64.600000000000009
   282   1      15.200000000000008      49.399999999999999      62.700000000000003
   283   1      13.300000000000004      47.499999999999993                    66.5
   284   1      13.300000000000004      49.399999999999999      68.400000000000006
   285   1      15.200000000000008      47.499999999999993      68.400000000000006
   286   1      15.200000000000008      49.399999999999999                    66.5
   287   1      15.200000000000008      49.399999999999999      70.299999999999983
   288   1      13.300000000000004      53.199999999999996      45.599999999999994
   289   1      15.200000000000008      51.299999999999997      45.599999999999994
   290   1      15.200000000000008      53.199999999999996      43.700000000000003
   291   1      13.300000000000004      51.299999999999997      47.499999999999993
   292   1      13.300000000000004      53.199999999999996      49.399999999999999
   293   1      15.200000000000008      51.299999999999997      49.399999999999999
   294   1      15.200000000000008      53.199999999999996      47.499999999999993
   295   1      13.300000000000004      51.299999999999997      51.299999999999997
   296   1      13.300000000000004      53.199999999999996      53.199999999999996
   297   1      15.200000000000008      51.299999999999997      53.199999999999996
   298   1      15.200000000000008      53.199999999999996      51.299999999999997
   299   1      13.300000000000004      51.299999999999997      55.099999999999994
   300   1      13.300000000000004      53.199999999999996      56.999999999999993
   301   1      15.200000000000008      51.299999999999997      56.999999999999993
   302   1      15.200000000000008      53.199999999999996      55.099999999999994
   303   1      13.300000000000004      51.299999999999997      58.899999999999999
   304   1      13.300000000000004      53.199999999999996      60.799999999999997
   305   1      15.200000000000008      51.299999999999997      60.799999999999997
   306   1      15.200000000000008      53.199999999999996      58.899999999999999
   307   1      13.300000000000004      51.299999999999997      62.700000000000003
   308   1      13.300000000000004      53.199999999999996      64.600000000000009
   309   1      15.200000000000008      51.299999999999997      64.600000000000009
   310   1      15.200000000000008      53.199999999999996      62.700000000000003
   311   1      13.300000000000004      51.299999999999997                    66.5
   312   1      13.300000000000004      53.199999999999996      68.400000000000006
   313   1      15.200000000000008      51.299999999999997      68.400000000000006
   314   1      15.200000000000008      53.199999999999996                    66.5
   315   1      13.300000000000004      51.299999999999997      70.299999999999983
   316   1      13.300000000000004      53.199999999999996      72.199999999999989
   317   1      15.200000000000008      51.299999999999997      72.199999999999989
   318   1      15.200000000000008      53.199999999999996      70.299999999999983
   319   1      15.200000000000008      53.199999999999996      74.099999999999994
   320   1      13.300000000000004      56.999999999999993      41.799999999999997
   321   1      15.200000000000008      55.099999999999994      41.799999999999997
   322   1      15.200000000000008      56.999999999999993      39.899999999999999
   323   1      13.300000000000004      55.099999999999994      43.700000000000003
   324   1      13.300000000000004      56.999999999999993      45.599999999999994
   325   1      15.200000000000008      55.099999999999994      45.599999999999994
   326   1      15.200000000000008      56.999999999999993      43.700000000000003
   327   1      13.300000000000004      55.099999999999994      47.499999999999993
   328   1      13.300000000000004      56.999999999999993      49.399999999999999
   329   1      15.200000000000008      55.099999999999994      49.399999999999999
   330   1      15.200000000000008      56.999999999999993      47.499999999999993
   331   1      13.300000000000004      55.099999999999994      51.299999999999997
   332   1      13.300000000000004      56.999999999999993      53.199999999999996
   333   1      15.200000000000008      55.099999999999994      53.199999999999996
   334   1      15.200000000000008      56.999999999999993      51.299999999999997
   335   1      13.300000000000004      55.099999999999994      55.099999999999994
   336   1      13.300000000000004      56.999999999999993      56.999999999999993
   337   1      15.200000000000008      55.099999999999994      56.999999999999993
   338   1      15.200000000000008      56.999999999999993      55.099999999999994
   339   1      13.300000000000004      55.099999999999994      58.899999999999999
   340   1      13.300000000000004      56.999999999999993      60.799999999999997
   341   1      15.200000000000008      55.099999999999994      60.799999999999997
   342   1      15.200000000000008      56.999999999999993      58.899999999999999
   343   1      13.300000000000004      55.099999999999994      62.700000000000003
   344   1      13.300000000000004      56.999999999999993      64.600000000000009
   345   1      15.200000000000008      55.099999999999994      64.600000000000009
   346   1      15.200000000000008      56.999999999999993      62.700000000000003
   347   1      13.300000000000004      55.099999999999994                    66.5
   348   1      13.300000000000004      56.999999999999993      68.400000000000006
   349   1      15.200000000000008      55.099999999999994      68.400000000000006
   350   1      15.200000000000008      56.999999999999993                    66.5
   351   1      13.300000000000004      55.099999999999994      70.299999999999983
   352   1      13.300000000000004      56.999999999999993      72.199999999999989
   353   1      15.200000000000008      55.099999999999994      72.199999999999989
   354   1      15.200000000000008      56.999999999999993      70.299999999999983
   355   1      13.300000000000004      55.099999999999994      74.099999999999994
   356   1      13.300000000000004      56.999999999999993                      76
   357   1      15.200000000000008      55.099999999999994                      76
   358   1      15.200000000000008      56.999999999999993      74.099999999999994