model_files/PtAu/PtAu_30000/PtAu_433/PtAu_433_fcc_30337_temp.data (written by ASE) 

30337 	 atoms 
2  atom types
0.0                     131  xlo xhi
0.0                     131  ylo yhi
0.0                     131  zlo zhi


Atoms 

     1   1      2.0214999999999961      62.666499999999992      64.688000000000002
     2   1      2.0214999999999961      64.688000000000002      62.666499999999992
     3   1                       0      64.688000000000002      64.688000000000002
     4   1      2.0214999999999961      64.688000000000002      66.709500000000006
     5   1      2.0214999999999961      66.709500000000006      64.688000000000002
     6   1      6.0644999999999953      58.623499999999993      64.688000000000002
     7   1      4.0429999999999922      62.666499999999992      62.666499999999992
     8   1      6.0644999999999953      60.644999999999989      62.666499999999992
     9   1      6.0644999999999953      62.666499999999992      60.644999999999989
    10   1      4.0429999999999922      60.644999999999989      64.688000000000002
    11   1      4.0429999999999922      62.666499999999992      66.709500000000006
    12   1      6.0644999999999953      60.644999999999989      66.709500000000006
    13   1      6.0644999999999953      62.666499999999992      64.688000000000002
    14   1      6.0644999999999953      62.666499999999992      68.730999999999995
    15   1      6.0644999999999953      64.688000000000002      58.623499999999993
    16   1      4.0429999999999922      64.688000000000002      60.644999999999989
    17   1      4.0429999999999922      66.709500000000006      62.666499999999992
    18   1      6.0644999999999953      64.688000000000002      62.666499999999992
    19   1      6.0644999999999953      66.709500000000006      60.644999999999989
    20   1      4.0429999999999922      64.688000000000002      64.688000000000002
    21   1      4.0429999999999922      66.709500000000006      66.709500000000006
    22   1      6.0644999999999953      64.688000000000002      66.709500000000006
    23   1      6.0644999999999953      66.709500000000006      64.688000000000002
    24   1      4.0429999999999922      64.688000000000002      68.730999999999995
    25   1      6.0644999999999953      64.688000000000002      70.752499999999998
    26   1      6.0644999999999953      66.709500000000006      68.730999999999995
    27   1      6.0644999999999953      68.730999999999995      62.666499999999992
    28   1      4.0429999999999922      68.730999999999995      64.688000000000002
    29   1      6.0644999999999953      68.730999999999995      66.709500000000006
    30   1      6.0644999999999953      70.752499999999998      64.688000000000002
    31   1      10.107499999999995      54.580499999999994      64.688000000000002
    32   1      8.0859999999999985      58.623499999999993      62.666499999999992
    33   1      10.107499999999995       56.60199999999999      62.666499999999992
    34   1      10.107499999999995      58.623499999999993      60.644999999999989
    35   1      8.0859999999999985       56.60199999999999      64.688000000000002
    36   1      8.0859999999999985      58.623499999999993      66.709500000000006
    37   1      10.107499999999995       56.60199999999999      66.709500000000006
    38   1      10.107499999999995      58.623499999999993      64.688000000000002
    39   1      10.107499999999995      58.623499999999993      68.730999999999995
    40   1      8.0859999999999985      62.666499999999992      58.623499999999993
    41   1      10.107499999999995      60.644999999999989      58.623499999999993
    42   1      10.107499999999995      62.666499999999992       56.60199999999999
    43   1      8.0859999999999985      60.644999999999989      60.644999999999989
    44   1      8.0859999999999985      62.666499999999992      62.666499999999992
    45   1      10.107499999999995      60.644999999999989      62.666499999999992
    46   1      10.107499999999995      62.666499999999992      60.644999999999989
    47   1      8.0859999999999985      60.644999999999989      64.688000000000002
    48   1      8.0859999999999985      62.666499999999992      66.709500000000006
    49   1      10.107499999999995      60.644999999999989      66.709500000000006
    50   1      10.107499999999995      62.666499999999992      64.688000000000002
    51   1      8.0859999999999985      60.644999999999989      68.730999999999995
    52   1      8.0859999999999985      62.666499999999992      70.752499999999998
    53   1      10.107499999999995      60.644999999999989      70.752499999999998
    54   1      10.107499999999995      62.666499999999992      68.730999999999995
    55   1      10.107499999999995      62.666499999999992      72.774000000000001
    56   1      10.107499999999995      64.688000000000002      54.580499999999994
    57   1      8.0859999999999985      64.688000000000002       56.60199999999999
    58   1      8.0859999999999985      66.709500000000006      58.623499999999993
    59   1      10.107499999999995      64.688000000000002      58.623499999999993
    60   1      10.107499999999995      66.709500000000006       56.60199999999999
    61   1      8.0859999999999985      64.688000000000002      60.644999999999989
    62   1      8.0859999999999985      66.709500000000006      62.666499999999992
    63   1      10.107499999999995      64.688000000000002      62.666499999999992
    64   1      10.107499999999995      66.709500000000006      60.644999999999989
    65   1      8.0859999999999985      64.688000000000002      64.688000000000002
    66   1      8.0859999999999985      66.709500000000006      66.709500000000006
    67   1      10.107499999999995      64.688000000000002      66.709500000000006
    68   1      10.107499999999995      66.709500000000006      64.688000000000002
    69   1      8.0859999999999985      64.688000000000002      68.730999999999995
    70   1      8.0859999999999985      66.709500000000006      70.752499999999998
    71   1      10.107499999999995      64.688000000000002      70.752499999999998
    72   1      10.107499999999995      66.709500000000006      68.730999999999995
    73   1      8.0859999999999985      64.688000000000002      72.774000000000001
    74   1      10.107499999999995      64.688000000000002      74.795500000000004
    75   1      10.107499999999995      66.709500000000006      72.774000000000001
    76   1      10.107499999999995      68.730999999999995      58.623499999999993
    77   1      8.0859999999999985      68.730999999999995      60.644999999999989
    78   1      8.0859999999999985      70.752499999999998      62.666499999999992
    79   1      10.107499999999995      68.730999999999995      62.666499999999992
    80   1      10.107499999999995      70.752499999999998      60.644999999999989
    81   1      8.0859999999999985      68.730999999999995      64.688000000000002
    82   1      8.0859999999999985      70.752499999999998      66.709500000000006
    83   1      10.107499999999995      68.730999999999995      66.709500000000006
    84   1      10.107499999999995      70.752499999999998      64.688000000000002
    85   1      8.0859999999999985      68.730999999999995      68.730999999999995
    86   1      10.107499999999995      68.730999999999995      70.752499999999998
    87   1      10.107499999999995      70.752499999999998      68.730999999999995
    88   1      10.107499999999995      72.774000000000001      62.666499999999992
    89   1      8.0859999999999985      72.774000000000001      64.688000000000002
    90   1      10.107499999999995      72.774000000000001      66.709500000000006
    91   1      10.107499999999995      74.795500000000004      64.688000000000002
    92   1      14.150499999999992      46.494500000000002      64.688000000000002
    93   1      12.128999999999991      50.537500000000001      62.666499999999992
    94   1      14.150499999999992      48.515999999999998      62.666499999999992
    95   1      14.150499999999992      50.537500000000001      60.644999999999989
    96   1      12.128999999999991      48.515999999999998      64.688000000000002
    97   1      12.128999999999991      50.537500000000001      66.709500000000006
    98   1      14.150499999999992      48.515999999999998      66.709500000000006
    99   1      14.150499999999992      50.537500000000001      64.688000000000002
   100   1      14.150499999999992      50.537500000000001      68.730999999999995
   101   1      12.128999999999991      54.580499999999994      58.623499999999993
   102   1      14.150499999999992      52.558999999999997      58.623499999999993
   103   1      14.150499999999992      54.580499999999994       56.60199999999999
   104   1      12.128999999999991      52.558999999999997      60.644999999999989
   105   1      12.128999999999991      54.580499999999994      62.666499999999992
   106   1      14.150499999999992      52.558999999999997      62.666499999999992
   107   1      14.150499999999992      54.580499999999994      60.644999999999989
   108   1      12.128999999999991      52.558999999999997      64.688000000000002
   109   1      12.128999999999991      54.580499999999994      66.709500000000006
   110   1      14.150499999999992      52.558999999999997      66.709500000000006
   111   1      14.150499999999992      54.580499999999994      64.688000000000002
   112   1      12.128999999999991      52.558999999999997      68.730999999999995
   113   1      12.128999999999991      54.580499999999994      70.752499999999998
   114   1      14.150499999999992      52.558999999999997      70.752499999999998
   115   1      14.150499999999992      54.580499999999994      68.730999999999995
   116   1      14.150499999999992      54.580499999999994      72.774000000000001
   117   1      12.128999999999991      58.623499999999993      54.580499999999994
   118   1      14.150499999999992       56.60199999999999      54.580499999999994
   119   1      14.150499999999992      58.623499999999993      52.558999999999997
   120   1      12.128999999999991       56.60199999999999       56.60199999999999
   121   1      12.128999999999991      58.623499999999993      58.623499999999993
   122   1      14.150499999999992       56.60199999999999      58.623499999999993
   123   1      14.150499999999992      58.623499999999993       56.60199999999999
   124   1      12.128999999999991       56.60199999999999      60.644999999999989
   125   1      12.128999999999991      58.623499999999993      62.666499999999992
   126   1      14.150499999999992       56.60199999999999      62.666499999999992
   127   1      14.150499999999992      58.623499999999993      60.644999999999989
   128   1      12.128999999999991       56.60199999999999      64.688000000000002
   129   1      12.128999999999991      58.623499999999993      66.709500000000006
   130   1      14.150499999999992       56.60199999999999      66.709500000000006
   131   1      14.150499999999992      58.623499999999993      64.688000000000002
   132   1      12.128999999999991       56.60199999999999      68.730999999999995
   133   1      12.128999999999991      58.623499999999993      70.752499999999998
   134   1      14.150499999999992       56.60199999999999      70.752499999999998
   135   1      14.150499999999992      58.623499999999993      68.730999999999995
   136   1      12.128999999999991       56.60199999999999      72.774000000000001
   137   1      12.128999999999991      58.623499999999993      74.795500000000004
   138   1      14.150499999999992       56.60199999999999      74.795500000000004
   139   1      14.150499999999992      58.623499999999993      72.774000000000001
   140   1      14.150499999999992      58.623499999999993      76.816999999999993
   141   1      12.128999999999991      62.666499999999992      50.537500000000001
   142   1      14.150499999999992      60.644999999999989      50.537500000000001
   143   1      14.150499999999992      62.666499999999992      48.515999999999998
   144   1      12.128999999999991      60.644999999999989      52.558999999999997
   145   1      12.128999999999991      62.666499999999992      54.580499999999994
   146   1      14.150499999999992      60.644999999999989      54.580499999999994
   147   1      14.150499999999992      62.666499999999992      52.558999999999997
   148   1      12.128999999999991      60.644999999999989       56.60199999999999
   149   1      12.128999999999991      62.666499999999992      58.623499999999993
   150   1      14.150499999999992      60.644999999999989      58.623499999999993
   151   1      14.150499999999992      62.666499999999992       56.60199999999999
   152   1      12.128999999999991      60.644999999999989      60.644999999999989
   153   1      12.128999999999991      62.666499999999992      62.666499999999992
   154   1      14.150499999999992      60.644999999999989      62.666499999999992
   155   1      14.150499999999992      62.666499999999992      60.644999999999989
   156   1      12.128999999999991      60.644999999999989      64.688000000000002
   157   1      12.128999999999991      62.666499999999992      66.709500000000006
   158   1      14.150499999999992      60.644999999999989      66.709500000000006
   159   1      14.150499999999992      62.666499999999992      64.688000000000002
   160   1      12.128999999999991      60.644999999999989      68.730999999999995
   161   1      12.128999999999991      62.666499999999992      70.752499999999998
   162   1      14.150499999999992      60.644999999999989      70.752499999999998
   163   1      14.150499999999992      62.666499999999992      68.730999999999995
   164   1      12.128999999999991      60.644999999999989      72.774000000000001
   165   1      12.128999999999991      62.666499999999992      74.795500000000004
   166   1      14.150499999999992      60.644999999999989      74.795500000000004
   167   1      14.150499999999992      62.666499999999992      72.774000000000001
   168   1      12.128999999999991      60.644999999999989      76.816999999999993
   169   1      12.128999999999991      62.666499999999992      78.838499999999996
   170   1      14.150499999999992      60.644999999999989      78.838499999999996
   171   1      14.150499999999992      62.666499999999992      76.816999999999993
   172   1      14.150499999999992      62.666499999999992      80.859999999999999
   173   1      14.150499999999992      64.688000000000002      46.494500000000002
   174   1      12.128999999999991      64.688000000000002      48.515999999999998
   175   1      12.128999999999991      66.709500000000006      50.537500000000001
   176   1      14.150499999999992      64.688000000000002      50.537500000000001
   177   1      14.150499999999992      66.709500000000006      48.515999999999998
   178   1      12.128999999999991      64.688000000000002      52.558999999999997
   179   1      12.128999999999991      66.709500000000006      54.580499999999994
   180   1      14.150499999999992      64.688000000000002      54.580499999999994
   181   1      14.150499999999992      66.709500000000006      52.558999999999997
   182   1      12.128999999999991      64.688000000000002       56.60199999999999
   183   1      12.128999999999991      66.709500000000006      58.623499999999993
   184   1      14.150499999999992      64.688000000000002      58.623499999999993
   185   1      14.150499999999992      66.709500000000006       56.60199999999999
   186   1      12.128999999999991      64.688000000000002      60.644999999999989
   187   1      12.128999999999991      66.709500000000006      62.666499999999992
   188   1      14.150499999999992      64.688000000000002      62.666499999999992
   189   1      14.150499999999992      66.709500000000006      60.644999999999989
   190   1      12.128999999999991      64.688000000000002      64.688000000000002
   191   1      12.128999999999991      66.709500000000006      66.709500000000006
   192   1      14.150499999999992      64.688000000000002      66.709500000000006
   193   1      14.150499999999992      66.709500000000006      64.688000000000002
   194   1      12.128999999999991      64.688000000000002      68.730999999999995
   195   1      12.128999999999991      66.709500000000006      70.752499999999998
   196   1      14.150499999999992      64.688000000000002      70.752499999999998
   197   1      14.150499999999992      66.709500000000006      68.730999999999995
   198   1      12.128999999999991      64.688000000000002      72.774000000000001
   199   1      12.128999999999991      66.709500000000006      74.795500000000004
   200   1      14.150499999999992      64.688000000000002      74.795500000000004
   201   1      14.150499999999992      66.709500000000006      72.774000000000001
   202   1      12.128999999999991      64.688000000000002      76.816999999999993
   203   1      12.128999999999991      66.709500000000006      78.838499999999996
   204   1      14.150499999999992      64.688000000000002      78.838499999999996
   205   1      14.150499999999992      66.709500000000006      76.816999999999993
   206   1      12.128999999999991      64.688000000000002      80.859999999999999
   207   1      14.150499999999992      64.688000000000002      82.881500000000003
   208   1      14.150499999999992      66.709500000000006      80.859999999999999
   209   1      14.150499999999992      68.730999999999995      50.537500000000001
   210   1      12.128999999999991      68.730999999999995      52.558999999999997
   211   1      12.128999999999991      70.752499999999998      54.580499999999994
   212   1      14.150499999999992      68.730999999999995      54.580499999999994
   213   1      14.150499999999992      70.752499999999998      52.558999999999997
   214   1      12.128999999999991      68.730999999999995       56.60199999999999
   215   1      12.128999999999991      70.752499999999998      58.623499999999993
   216   1      14.150499999999992      68.730999999999995      58.623499999999993
   217   1      14.150499999999992      70.752499999999998       56.60199999999999
   218   1      12.128999999999991      68.730999999999995      60.644999999999989
   219   1      12.128999999999991      70.752499999999998      62.666499999999992
   220   1      14.150499999999992      68.730999999999995      62.666499999999992
   221   1      14.150499999999992      70.752499999999998      60.644999999999989
   222   1      12.128999999999991      68.730999999999995      64.688000000000002
   223   1      12.128999999999991      70.752499999999998      66.709500000000006
   224   1      14.150499999999992      68.730999999999995      66.709500000000006
   225   1      14.150499999999992      70.752499999999998      64.688000000000002
   226   1      12.128999999999991      68.730999999999995      68.730999999999995
   227   1      12.128999999999991      70.752499999999998      70.752499999999998
   228   1      14.150499999999992      68.730999999999995      70.752499999999998
   229   1      14.150499999999992      70.752499999999998      68.730999999999995
   230   1      12.128999999999991      68.730999999999995      72.774000000000001
   231   1      12.128999999999991      70.752499999999998      74.795500000000004
   232   1      14.150499999999992      68.730999999999995      74.795500000000004
   233   1      14.150499999999992      70.752499999999998      72.774000000000001
   234   1      12.128999999999991      68.730999999999995      76.816999999999993
   235   1      14.150499999999992      68.730999999999995      78.838499999999996
   236   1      14.150499999999992      70.752499999999998      76.816999999999993
   237   1      14.150499999999992      72.774000000000001      54.580499999999994
   238   1      12.128999999999991      72.774000000000001       56.60199999999999
   239   1      12.128999999999991      74.795500000000004      58.623499999999993
   240   1      14.150499999999992      72.774000000000001      58.623499999999993
   241   1      14.150499999999992      74.795500000000004       56.60199999999999
   242   1      12.128999999999991      72.774000000000001      60.644999999999989
   243   1      12.128999999999991      74.795500000000004      62.666499999999992
   244   1      14.150499999999992      72.774000000000001      62.666499999999992
   245   1      14.150499999999992      74.795500000000004      60.644999999999989
   246   1      12.128999999999991      72.774000000000001      64.688000000000002
   247   1      12.128999999999991      74.795500000000004      66.709500000000006
   248   1      14.150499999999992      72.774000000000001      66.709500000000006
   249   1      14.150499999999992      74.795500000000004      64.688000000000002
   250   1      12.128999999999991      72.774000000000001      68.730999999999995
   251   1      12.128999999999991      74.795500000000004      70.752499999999998
   252   1      14.150499999999992      72.774000000000001      70.752499999999998
   253   1      14.150499999999992      74.795500000000004      68.730999999999995
   254   1      12.128999999999991      72.774000000000001      72.774000000000001
   255   1      14.150499999999992      72.774000000000001      74.795500000000004
   256   1      14.150499999999992      74.795500000000004      72.774000000000001
   257   1      14.150499999999992      76.816999999999993      58.623499999999993
   258   1      12.128999999999991      76.816999999999993      60.644999999999989
   259   1      12.128999999999991      78.838499999999996      62.666499999999992
   260   1      14.150499999999992      76.816999999999993      62.666499999999992
   261   1      14.150499999999992      78.838499999999996      60.644999999999989
   262   1      12.128999999999991      76.816999999999993      64.688000000000002
   263   1      12.128999999999991      78.838499999999996      66.709500000000006
   264   1      14.150499999999992      76.816999999999993      66.709500000000006
   265   1      14.150499999999992      78.838499999999996      64.688000000000002
   266   1      12.128999999999991      76.816999999999993      68.730999999999995
   267   1      14.150499999999992      76.816999999999993      70.752499999999998
   268   1      14.150499999999992      78.838499999999996      68.730999999999995
   269   1      14.150499999999992      80.859999999999999      62.666499999999992
   270   1      12.128999999999991      80.859999999999999      64.688000000000002
   271   1      14.150499999999992      80.859999999999999      66.709500000000006
   272   1      14.150499999999992      82.881500000000003      64.688000000000002
   273   1      18.193499999999993      42.451499999999996      64.688000000000002
   274   1      16.171999999999997      46.494500000000002      62.666499999999992
   275   1      18.193499999999993      44.472999999999999      62.666499999999992
   276   1      18.193499999999993      46.494500000000002      60.644999999999989
   277   1      16.171999999999997      44.472999999999999      64.688000000000002
   278   1      16.171999999999997      46.494500000000002      66.709500000000006
   279   1      18.193499999999993      44.472999999999999      66.709500000000006
   280   1      18.193499999999993      46.494500000000002      64.688000000000002
   281   1      18.193499999999993      46.494500000000002      68.730999999999995
   282   1      16.171999999999997      50.537500000000001      58.623499999999993
   283   1      18.193499999999993      48.515999999999998      58.623499999999993
   284   1      18.193499999999993      50.537500000000001       56.60199999999999
   285   1      16.171999999999997      48.515999999999998      60.644999999999989
   286   1      16.171999999999997      50.537500000000001      62.666499999999992
   287   1      18.193499999999993      48.515999999999998      62.666499999999992
   288   1      18.193499999999993      50.537500000000001      60.644999999999989
   289   1      16.171999999999997      48.515999999999998      64.688000000000002
   290   1      16.171999999999997      50.537500000000001      66.709500000000006
   291   1      18.193499999999993      48.515999999999998      66.709500000000006
   292   1      18.193499999999993      50.537500000000001      64.688000000000002
   293   1      16.171999999999997      48.515999999999998      68.730999999999995
   294   1      16.171999999999997      50.537500000000001      70.752499999999998
   295   1      18.193499999999993      48.515999999999998      70.752499999999998
   296   1      18.193499999999993      50.537500000000001      68.730999999999995
   297   1      18.193499999999993      50.537500000000001      72.774000000000001
   298   1      16.171999999999997      54.580499999999994      54.580499999999994
   299   1      18.193499999999993      52.558999999999997      54.580499999999994
   300   1      18.193499999999993      54.580499999999994      52.558999999999997
   301   1      16.171999999999997      52.558999999999997       56.60199999999999
   302   1      16.171999999999997      54.580499999999994      58.623499999999993
   303   1      18.193499999999993      52.558999999999997      58.623499999999993
   304   1      18.193499999999993      54.580499999999994       56.60199999999999
   305   1      16.171999999999997      52.558999999999997      60.644999999999989
   306   1      16.171999999999997      54.580499999999994      62.666499999999992
   307   1      18.193499999999993      52.558999999999997      62.666499999999992
   308   1      18.193499999999993      54.580499999999994      60.644999999999989
   309   1      16.171999999999997      52.558999999999997      64.688000000000002
   310   1      16.171999999999997      54.580499999999994      66.709500000000006
   311   1      18.193499999999993      52.558999999999997      66.709500000000006
   312   1      18.193499999999993      54.580499999999994      64.688000000000002
   313   1      16.171999999999997      52.558999999999997      68.730999999999995
   314   1      16.171999999999997      54.580499999999994      70.752499999999998
   315   1      18.193499999999993      52.558999999999997      70.752499999999998
   316   1      18.193499999999993      54.580499999999994      68.730999999999995
   317   1      16.171999999999997      52.558999999999997      72.774000000000001
   318   1      16.171999999999997      54.580499999999994      74.795500000000004
   319   1      18.193499999999993      52.558999999999997      74.795500000000004
   320   1      18.193499999999993      54.580499999999994      72.774000000000001
   321   1      18.193499999999993      54.580499999999994      76.816999999999993
   322   1      16.171999999999997      58.623499999999993      50.537500000000001
   323   1      18.193499999999993       56.60199999999999      50.537500000000001
   324   1      18.193499999999993      58.623499999999993      48.515999999999998
   325   1      16.171999999999997       56.60199999999999      52.558999999999997
   326   1      16.171999999999997      58.623499999999993      54.580499999999994
   327   1      18.193499999999993       56.60199999999999      54.580499999999994
   328   1      18.193499999999993      58.623499999999993      52.558999999999997
   329   1      16.171999999999997       56.60199999999999       56.60199999999999
   330   1      16.171999999999997      58.623499999999993      58.623499999999993
   331   1      18.193499999999993       56.60199999999999      58.623499999999993
   332   1      18.193499999999993      58.623499999999993       56.60199999999999
   333   1      16.171999999999997       56.60199999999999      60.644999999999989
   334   1      16.171999999999997      58.623499999999993      62.666499999999992
   335   1      18.193499999999993       56.60199999999999      62.666499999999992
   336   1      18.193499999999993      58.623499999999993      60.644999999999989
   337   1      16.171999999999997       56.60199999999999      64.688000000000002
   338   1      16.171999999999997      58.623499999999993      66.709500000000006
   339   1      18.193499999999993       56.60199999999999      66.709500000000006
   340   1      18.193499999999993      58.623499999999993      64.688000000000002
   341   1      16.171999999999997       56.60199999999999      68.730999999999995
   342   1      16.171999999999997      58.623499999999993      70.752499999999998
   343   1      18.193499999999993       56.60199999999999      70.752499999999998
   344   1      18.193499999999993      58.623499999999993      68.730999999999995
   345   1      16.171999999999997       56.60199999999999      72.774000000000001
   346   1      16.171999999999997      58.623499999999993      74.795500000000004
   347   1      18.193499999999993       56.60199999999999      74.795500000000004
   348   1      18.193499999999993      58.623499999999993      72.774000000000001
   349   1      16.171999999999997       56.60199999999999      76.816999999999993
   350   1      16.171999999999997      58.623499999999993      78.838499999999996
   351   1      18.193499999999993       56.60199999999999      78.838499999999996
   352   1      18.193499999999993      58.623499999999993      76.816999999999993
   353   1      18.193499999999993      58.623499999999993      80.859999999999999
   354   1      16.171999999999997      62.666499999999992      46.494500000000002
   355   1      18.193499999999993      60.644999999999989      46.494500000000002
   356   1      18.193499999999993      62.666499999999992      44.472999999999999
   357   1      16.171999999999997      60.644999999999989      48.515999999999998
   358   1      16.171999999999997      62.666499999999992      50.537500000000001