model_files/PtCo/PtCo_30000/PtCo_310/PtCo_310_fcc_30527_temp.data (written by ASE) 

30527 	 atoms 
2  atom types
0.0                      85  xlo xhi
0.0                      85  ylo yhi
0.0                      85  zlo zhi


Atoms 

     1   1  1.4210854715202004e-14       38.32500000000001      40.150000000000013
     2   1  1.4210854715202004e-14      40.150000000000013       38.32500000000001
     3   1  1.4210854715202004e-14       38.32500000000001      43.800000000000004
     4   1  1.4210854715202004e-14      40.150000000000013      41.975000000000009
     5   1  1.4210854715202004e-14      40.150000000000013      45.625000000000007
     6   1  1.4210854715202004e-14      41.975000000000009      40.150000000000013
     7   1  1.4210854715202004e-14      43.800000000000004       38.32500000000001
     8   1  1.4210854715202004e-14      41.975000000000009      43.800000000000004
     9   1  1.4210854715202004e-14      43.800000000000004      41.975000000000009
    10   1  1.4210854715202004e-14      43.800000000000004      45.625000000000007
    11   1  1.4210854715202004e-14      45.625000000000007      40.150000000000013
    12   1  1.4210854715202004e-14      45.625000000000007      43.800000000000004
    13   1      3.6500000000000128      27.375000000000011      29.200000000000006
    14   1      3.6500000000000128      29.200000000000006      27.375000000000011
    15   1      3.6500000000000128      27.375000000000011      32.850000000000016
    16   1      3.6500000000000128      29.200000000000006      31.025000000000013
    17   1      3.6500000000000128      27.375000000000011      36.500000000000014
    18   1      3.6500000000000128      29.200000000000006      34.675000000000011
    19   1      3.6500000000000128      27.375000000000011      40.150000000000013
    20   1      3.6500000000000128      29.200000000000006       38.32500000000001
    21   1      3.6500000000000128      27.375000000000011      43.800000000000004
    22   1      3.6500000000000128      29.200000000000006      41.975000000000009
    23   1      3.6500000000000128      27.375000000000011       47.45000000000001
    24   1      3.6500000000000128      29.200000000000006      45.625000000000007
    25   1      3.6500000000000128      27.375000000000011      51.100000000000009
    26   1      3.6500000000000128      29.200000000000006      49.275000000000013
    27   1      3.6500000000000128      27.375000000000011      54.750000000000014
    28   1      3.6500000000000128      29.200000000000006      52.925000000000011
    29   1      3.6500000000000128      29.200000000000006      56.575000000000003
    30   1      3.6500000000000128      31.025000000000013      29.200000000000006
    31   1      3.6500000000000128      32.850000000000016      27.375000000000011
    32   1      1.8250000000000099      32.850000000000016      32.850000000000016
    33   1      3.6500000000000128      31.025000000000013      32.850000000000016
    34   1      3.6500000000000128      32.850000000000016      31.025000000000013
    35   1      1.8250000000000099      32.850000000000016      36.500000000000014
    36   1      3.6500000000000128      31.025000000000013      36.500000000000014
    37   1      3.6500000000000128      32.850000000000016      34.675000000000011
    38   1      1.8250000000000099      32.850000000000016      40.150000000000013
    39   1      3.6500000000000128      31.025000000000013      40.150000000000013
    40   1      3.6500000000000128      32.850000000000016       38.32500000000001
    41   1      1.8250000000000099      32.850000000000016      43.800000000000004
    42   1      3.6500000000000128      31.025000000000013      43.800000000000004
    43   1      3.6500000000000128      32.850000000000016      41.975000000000009
    44   1      1.8250000000000099      32.850000000000016       47.45000000000001
    45   1      3.6500000000000128      31.025000000000013       47.45000000000001
    46   1      3.6500000000000128      32.850000000000016      45.625000000000007
    47   1      1.8250000000000099      32.850000000000016      51.100000000000009
    48   1      3.6500000000000128      31.025000000000013      51.100000000000009
    49   1      3.6500000000000128      32.850000000000016      49.275000000000013
    50   1      3.6500000000000128      31.025000000000013      54.750000000000014
    51   1      3.6500000000000128      32.850000000000016      52.925000000000011
    52   1      3.6500000000000128      32.850000000000016      56.575000000000003
    53   1      3.6500000000000128      34.675000000000011      29.200000000000006
    54   1      3.6500000000000128      36.500000000000014      27.375000000000011
    55   1      1.8250000000000099      36.500000000000014      32.850000000000016
    56   1      3.6500000000000128      34.675000000000011      32.850000000000016
    57   1      3.6500000000000128      36.500000000000014      31.025000000000013
    58   1      1.8250000000000099      34.675000000000011      34.675000000000011
    59   1      1.8250000000000099      36.500000000000014      36.500000000000014
    60   1      3.6500000000000128      34.675000000000011      36.500000000000014
    61   1      3.6500000000000128      36.500000000000014      34.675000000000011
    62   1      1.8250000000000099      34.675000000000011       38.32500000000001
    63   1      1.8250000000000099      36.500000000000014      40.150000000000013
    64   1      3.6500000000000128      34.675000000000011      40.150000000000013
    65   1      3.6500000000000128      36.500000000000014       38.32500000000001
    66   1      1.8250000000000099      34.675000000000011      41.975000000000009
    67   1      1.8250000000000099      36.500000000000014      43.800000000000004
    68   1      3.6500000000000128      34.675000000000011      43.800000000000004
    69   1      3.6500000000000128      36.500000000000014      41.975000000000009
    70   1      1.8250000000000099      34.675000000000011      45.625000000000007
    71   1      1.8250000000000099      36.500000000000014       47.45000000000001
    72   1      3.6500000000000128      34.675000000000011       47.45000000000001
    73   1      3.6500000000000128      36.500000000000014      45.625000000000007
    74   1      1.8250000000000099      34.675000000000011      49.275000000000013
    75   1      1.8250000000000099      36.500000000000014      51.100000000000009
    76   1      3.6500000000000128      34.675000000000011      51.100000000000009
    77   1      3.6500000000000128      36.500000000000014      49.275000000000013
    78   1      3.6500000000000128      34.675000000000011      54.750000000000014
    79   1      3.6500000000000128      36.500000000000014      52.925000000000011
    80   1      3.6500000000000128      36.500000000000014      56.575000000000003
    81   1      3.6500000000000128       38.32500000000001      29.200000000000006
    82   1      3.6500000000000128      40.150000000000013      27.375000000000011
    83   1      1.8250000000000099      40.150000000000013      32.850000000000016
    84   1      3.6500000000000128       38.32500000000001      32.850000000000016
    85   1      3.6500000000000128      40.150000000000013      31.025000000000013
    86   1      1.8250000000000099       38.32500000000001      34.675000000000011
    87   1      1.8250000000000099      40.150000000000013      36.500000000000014
    88   1      3.6500000000000128       38.32500000000001      36.500000000000014
    89   1      3.6500000000000128      40.150000000000013      34.675000000000011
    90   1      1.8250000000000099       38.32500000000001       38.32500000000001
    91   1      1.8250000000000099      40.150000000000013      40.150000000000013
    92   1      3.6500000000000128       38.32500000000001      40.150000000000013
    93   1      3.6500000000000128      40.150000000000013       38.32500000000001
    94   1      1.8250000000000099       38.32500000000001      41.975000000000009
    95   1      1.8250000000000099      40.150000000000013      43.800000000000004
    96   1      3.6500000000000128       38.32500000000001      43.800000000000004
    97   1      3.6500000000000128      40.150000000000013      41.975000000000009
    98   1      1.8250000000000099       38.32500000000001      45.625000000000007
    99   1      1.8250000000000099      40.150000000000013       47.45000000000001
   100   1      3.6500000000000128       38.32500000000001       47.45000000000001
   101   1      3.6500000000000128      40.150000000000013      45.625000000000007
   102   1      1.8250000000000099       38.32500000000001      49.275000000000013
   103   1      1.8250000000000099      40.150000000000013      51.100000000000009
   104   1      3.6500000000000128       38.32500000000001      51.100000000000009
   105   1      3.6500000000000128      40.150000000000013      49.275000000000013
   106   1      3.6500000000000128       38.32500000000001      54.750000000000014
   107   1      3.6500000000000128      40.150000000000013      52.925000000000011
   108   1      3.6500000000000128      40.150000000000013      56.575000000000003
   109   1      3.6500000000000128      41.975000000000009      29.200000000000006
   110   1      3.6500000000000128      43.800000000000004      27.375000000000011
   111   1      1.8250000000000099      43.800000000000004      32.850000000000016
   112   1      3.6500000000000128      41.975000000000009      32.850000000000016
   113   1      3.6500000000000128      43.800000000000004      31.025000000000013
   114   1      1.8250000000000099      41.975000000000009      34.675000000000011
   115   1      1.8250000000000099      43.800000000000004      36.500000000000014
   116   1      3.6500000000000128      41.975000000000009      36.500000000000014
   117   1      3.6500000000000128      43.800000000000004      34.675000000000011
   118   1      1.8250000000000099      41.975000000000009       38.32500000000001
   119   1      1.8250000000000099      43.800000000000004      40.150000000000013
   120   1      3.6500000000000128      41.975000000000009      40.150000000000013
   121   1      3.6500000000000128      43.800000000000004       38.32500000000001
   122   1      1.8250000000000099      41.975000000000009      41.975000000000009
   123   1      1.8250000000000099      43.800000000000004      43.800000000000004
   124   1      3.6500000000000128      41.975000000000009      43.800000000000004
   125   1      3.6500000000000128      43.800000000000004      41.975000000000009
   126   1      1.8250000000000099      41.975000000000009      45.625000000000007
   127   1      1.8250000000000099      43.800000000000004       47.45000000000001
   128   1      3.6500000000000128      41.975000000000009       47.45000000000001
   129   1      3.6500000000000128      43.800000000000004      45.625000000000007
   130   1      1.8250000000000099      41.975000000000009      49.275000000000013
   131   1      1.8250000000000099      43.800000000000004      51.100000000000009
   132   1      3.6500000000000128      41.975000000000009      51.100000000000009
   133   1      3.6500000000000128      43.800000000000004      49.275000000000013
   134   1      3.6500000000000128      41.975000000000009      54.750000000000014
   135   1      3.6500000000000128      43.800000000000004      52.925000000000011
   136   1      3.6500000000000128      43.800000000000004      56.575000000000003
   137   1      3.6500000000000128      45.625000000000007      29.200000000000006
   138   1      3.6500000000000128       47.45000000000001      27.375000000000011
   139   1      1.8250000000000099       47.45000000000001      32.850000000000016
   140   1      3.6500000000000128      45.625000000000007      32.850000000000016
   141   1      3.6500000000000128       47.45000000000001      31.025000000000013
   142   1      1.8250000000000099      45.625000000000007      34.675000000000011
   143   1      1.8250000000000099       47.45000000000001      36.500000000000014
   144   1      3.6500000000000128      45.625000000000007      36.500000000000014
   145   1      3.6500000000000128       47.45000000000001      34.675000000000011
   146   1      1.8250000000000099      45.625000000000007       38.32500000000001
   147   1      1.8250000000000099       47.45000000000001      40.150000000000013
   148   1      3.6500000000000128      45.625000000000007      40.150000000000013
   149   1      3.6500000000000128       47.45000000000001       38.32500000000001
   150   1      1.8250000000000099      45.625000000000007      41.975000000000009
   151   1      1.8250000000000099       47.45000000000001      43.800000000000004
   152   1      3.6500000000000128      45.625000000000007      43.800000000000004
   153   1      3.6500000000000128       47.45000000000001      41.975000000000009
   154   1      1.8250000000000099      45.625000000000007      45.625000000000007
   155   1      1.8250000000000099       47.45000000000001       47.45000000000001
   156   1      3.6500000000000128      45.625000000000007       47.45000000000001
   157   1      3.6500000000000128       47.45000000000001      45.625000000000007
   158   1      1.8250000000000099      45.625000000000007      49.275000000000013
   159   1      1.8250000000000099       47.45000000000001      51.100000000000009
   160   1      3.6500000000000128      45.625000000000007      51.100000000000009
   161   1      3.6500000000000128       47.45000000000001      49.275000000000013
   162   1      3.6500000000000128      45.625000000000007      54.750000000000014
   163   1      3.6500000000000128       47.45000000000001      52.925000000000011
   164   1      3.6500000000000128       47.45000000000001      56.575000000000003
   165   1      3.6500000000000128      49.275000000000013      29.200000000000006
   166   1      3.6500000000000128      51.100000000000009      27.375000000000011
   167   1      1.8250000000000099      51.100000000000009      32.850000000000016
   168   1      3.6500000000000128      49.275000000000013      32.850000000000016
   169   1      3.6500000000000128      51.100000000000009      31.025000000000013
   170   1      1.8250000000000099      49.275000000000013      34.675000000000011
   171   1      1.8250000000000099      51.100000000000009      36.500000000000014
   172   1      3.6500000000000128      49.275000000000013      36.500000000000014
   173   1      3.6500000000000128      51.100000000000009      34.675000000000011
   174   1      1.8250000000000099      49.275000000000013       38.32500000000001
   175   1      1.8250000000000099      51.100000000000009      40.150000000000013
   176   1      3.6500000000000128      49.275000000000013      40.150000000000013
   177   1      3.6500000000000128      51.100000000000009       38.32500000000001
   178   1      1.8250000000000099      49.275000000000013      41.975000000000009
   179   1      1.8250000000000099      51.100000000000009      43.800000000000004
   180   1      3.6500000000000128      49.275000000000013      43.800000000000004
   181   1      3.6500000000000128      51.100000000000009      41.975000000000009
   182   1      1.8250000000000099      49.275000000000013      45.625000000000007
   183   1      1.8250000000000099      51.100000000000009       47.45000000000001
   184   1      3.6500000000000128      49.275000000000013       47.45000000000001
   185   1      3.6500000000000128      51.100000000000009      45.625000000000007
   186   1      1.8250000000000099      49.275000000000013      49.275000000000013
   187   1      1.8250000000000099      51.100000000000009      51.100000000000009
   188   1      3.6500000000000128      49.275000000000013      51.100000000000009
   189   1      3.6500000000000128      51.100000000000009      49.275000000000013
   190   1      3.6500000000000128      49.275000000000013      54.750000000000014
   191   1      3.6500000000000128      51.100000000000009      52.925000000000011
   192   1      3.6500000000000128      51.100000000000009      56.575000000000003
   193   1      3.6500000000000128      52.925000000000011      29.200000000000006
   194   1      3.6500000000000128      54.750000000000014      27.375000000000011
   195   1      3.6500000000000128      52.925000000000011      32.850000000000016
   196   1      3.6500000000000128      54.750000000000014      31.025000000000013
   197   1      3.6500000000000128      52.925000000000011      36.500000000000014
   198   1      3.6500000000000128      54.750000000000014      34.675000000000011
   199   1      3.6500000000000128      52.925000000000011      40.150000000000013
   200   1      3.6500000000000128      54.750000000000014       38.32500000000001
   201   1      3.6500000000000128      52.925000000000011      43.800000000000004
   202   1      3.6500000000000128      54.750000000000014      41.975000000000009
   203   1      3.6500000000000128      52.925000000000011       47.45000000000001
   204   1      3.6500000000000128      54.750000000000014      45.625000000000007
   205   1      3.6500000000000128      52.925000000000011      51.100000000000009
   206   1      3.6500000000000128      54.750000000000014      49.275000000000013
   207   1      3.6500000000000128      52.925000000000011      54.750000000000014
   208   1      3.6500000000000128      54.750000000000014      52.925000000000011
   209   1      3.6500000000000128      54.750000000000014      56.575000000000003
   210   1      3.6500000000000128      56.575000000000003      29.200000000000006
   211   1      3.6500000000000128      56.575000000000003      32.850000000000016
   212   1      3.6500000000000128      56.575000000000003      36.500000000000014
   213   1      3.6500000000000128      56.575000000000003      40.150000000000013
   214   1      3.6500000000000128      56.575000000000003      43.800000000000004
   215   1      3.6500000000000128      56.575000000000003       47.45000000000001
   216   1      3.6500000000000128      56.575000000000003      51.100000000000009
   217   1      3.6500000000000128      56.575000000000003      54.750000000000014
   218   1      7.3000000000000114      16.425000000000011      18.250000000000011
   219   1      7.3000000000000114      18.250000000000011      16.425000000000011
   220   1      7.3000000000000114      16.425000000000011      21.900000000000009
   221   1      7.3000000000000114      18.250000000000011       20.07500000000001
   222   1      7.3000000000000114      16.425000000000011      25.550000000000011
   223   1      7.3000000000000114      18.250000000000011      23.725000000000016
   224   1      7.3000000000000114      16.425000000000011      29.200000000000006
   225   1      7.3000000000000114      18.250000000000011      27.375000000000011
   226   1      7.3000000000000114      16.425000000000011      32.850000000000016
   227   1      7.3000000000000114      18.250000000000011      31.025000000000013
   228   1      7.3000000000000114      16.425000000000011      36.500000000000014
   229   1      7.3000000000000114      18.250000000000011      34.675000000000011
   230   1      7.3000000000000114      16.425000000000011      40.150000000000013
   231   1      7.3000000000000114      18.250000000000011       38.32500000000001
   232   1      7.3000000000000114      16.425000000000011      43.800000000000004
   233   1      7.3000000000000114      18.250000000000011      41.975000000000009
   234   1      7.3000000000000114      16.425000000000011       47.45000000000001
   235   1      7.3000000000000114      18.250000000000011      45.625000000000007
   236   1      7.3000000000000114      16.425000000000011      51.100000000000009
   237   1      7.3000000000000114      18.250000000000011      49.275000000000013
   238   1      7.3000000000000114      16.425000000000011      54.750000000000014
   239   1      7.3000000000000114      18.250000000000011      52.925000000000011
   240   1      7.3000000000000114      16.425000000000011      58.400000000000013
   241   1      7.3000000000000114      18.250000000000011      56.575000000000003
   242   1      7.3000000000000114      16.425000000000011      62.050000000000011
   243   1      7.3000000000000114      18.250000000000011      60.225000000000009
   244   1      7.3000000000000114      16.425000000000011      65.700000000000017
   245   1      7.3000000000000114      18.250000000000011      63.875000000000007
   246   1      7.3000000000000114      18.250000000000011      67.525000000000006
   247   1      7.3000000000000114       20.07500000000001      18.250000000000011
   248   1      7.3000000000000114      21.900000000000009      16.425000000000011
   249   1      5.4750000000000076      21.900000000000009      21.900000000000009
   250   1      7.3000000000000114       20.07500000000001      21.900000000000009
   251   1      7.3000000000000114      21.900000000000009       20.07500000000001
   252   1      5.4750000000000076      21.900000000000009      25.550000000000011
   253   1      7.3000000000000114       20.07500000000001      25.550000000000011
   254   1      7.3000000000000114      21.900000000000009      23.725000000000016
   255   1      5.4750000000000076      21.900000000000009      29.200000000000006
   256   1      7.3000000000000114       20.07500000000001      29.200000000000006
   257   1      7.3000000000000114      21.900000000000009      27.375000000000011
   258   1      5.4750000000000076      21.900000000000009      32.850000000000016
   259   1      7.3000000000000114       20.07500000000001      32.850000000000016
   260   1      7.3000000000000114      21.900000000000009      31.025000000000013
   261   1      5.4750000000000076      21.900000000000009      36.500000000000014
   262   1      7.3000000000000114       20.07500000000001      36.500000000000014
   263   1      7.3000000000000114      21.900000000000009      34.675000000000011
   264   1      5.4750000000000076      21.900000000000009      40.150000000000013
   265   1      7.3000000000000114       20.07500000000001      40.150000000000013
   266   1      7.3000000000000114      21.900000000000009       38.32500000000001
   267   1      5.4750000000000076      21.900000000000009      43.800000000000004
   268   1      7.3000000000000114       20.07500000000001      43.800000000000004
   269   1      7.3000000000000114      21.900000000000009      41.975000000000009
   270   1      5.4750000000000076      21.900000000000009       47.45000000000001
   271   1      7.3000000000000114       20.07500000000001       47.45000000000001
   272   1      7.3000000000000114      21.900000000000009      45.625000000000007
   273   1      5.4750000000000076      21.900000000000009      51.100000000000009
   274   1      7.3000000000000114       20.07500000000001      51.100000000000009
   275   1      7.3000000000000114      21.900000000000009      49.275000000000013
   276   1      5.4750000000000076      21.900000000000009      54.750000000000014
   277   1      7.3000000000000114       20.07500000000001      54.750000000000014
   278   1      7.3000000000000114      21.900000000000009      52.925000000000011
   279   1      5.4750000000000076      21.900000000000009      58.400000000000013
   280   1      7.3000000000000114       20.07500000000001      58.400000000000013
   281   1      7.3000000000000114      21.900000000000009      56.575000000000003
   282   1      5.4750000000000076      21.900000000000009      62.050000000000011
   283   1      7.3000000000000114       20.07500000000001      62.050000000000011
   284   1      7.3000000000000114      21.900000000000009      60.225000000000009
   285   1      7.3000000000000114       20.07500000000001      65.700000000000017
   286   1      7.3000000000000114      21.900000000000009      63.875000000000007
   287   1      7.3000000000000114      21.900000000000009      67.525000000000006
   288   1      7.3000000000000114      23.725000000000016      18.250000000000011
   289   1      7.3000000000000114      25.550000000000011      16.425000000000011
   290   1      5.4750000000000076      25.550000000000011      21.900000000000009
   291   1      7.3000000000000114      23.725000000000016      21.900000000000009
   292   1      7.3000000000000114      25.550000000000011       20.07500000000001
   293   1      5.4750000000000076      23.725000000000016      23.725000000000016
   294   1      5.4750000000000076      25.550000000000011      25.550000000000011
   295   1      7.3000000000000114      23.725000000000016      25.550000000000011
   296   1      7.3000000000000114      25.550000000000011      23.725000000000016
   297   1      5.4750000000000076      23.725000000000016      27.375000000000011
   298   1      5.4750000000000076      25.550000000000011      29.200000000000006
   299   1      7.3000000000000114      23.725000000000016      29.200000000000006
   300   1      7.3000000000000114      25.550000000000011      27.375000000000011
   301   1      5.4750000000000076      23.725000000000016      31.025000000000013
   302   1      5.4750000000000076      25.550000000000011      32.850000000000016
   303   1      7.3000000000000114      23.725000000000016      32.850000000000016
   304   1      7.3000000000000114      25.550000000000011      31.025000000000013
   305   1      5.4750000000000076      23.725000000000016      34.675000000000011
   306   1      5.4750000000000076      25.550000000000011      36.500000000000014
   307   1      7.3000000000000114      23.725000000000016      36.500000000000014
   308   1      7.3000000000000114      25.550000000000011      34.675000000000011
   309   1      5.4750000000000076      23.725000000000016       38.32500000000001
   310   1      5.4750000000000076      25.550000000000011      40.150000000000013
   311   1      7.3000000000000114      23.725000000000016      40.150000000000013
   312   1      7.3000000000000114      25.550000000000011       38.32500000000001
   313   1      5.4750000000000076      23.725000000000016      41.975000000000009
   314   1      5.4750000000000076      25.550000000000011      43.800000000000004
   315   1      7.3000000000000114      23.725000000000016      43.800000000000004
   316   1      7.3000000000000114      25.550000000000011      41.975000000000009
   317   1      5.4750000000000076      23.725000000000016      45.625000000000007
   318   1      5.4750000000000076      25.550000000000011       47.45000000000001
   319   1      7.3000000000000114      23.725000000000016       47.45000000000001
   320   1      7.3000000000000114      25.550000000000011      45.625000000000007
   321   1      5.4750000000000076      23.725000000000016      49.275000000000013
   322   1      5.4750000000000076      25.550000000000011      51.100000000000009
   323   1      7.3000000000000114      23.725000000000016      51.100000000000009
   324   1      7.3000000000000114      25.550000000000011      49.275000000000013
   325   1      5.4750000000000076      23.725000000000016      52.925000000000011
   326   1      5.4750000000000076      25.550000000000011      54.750000000000014
   327   1      7.3000000000000114      23.725000000000016      54.750000000000014
   328   1      7.3000000000000114      25.550000000000011      52.925000000000011
   329   1      5.4750000000000076      23.725000000000016      56.575000000000003
   330   1      5.4750000000000076      25.550000000000011      58.400000000000013
   331   1      7.3000000000000114      23.725000000000016      58.400000000000013
   332   1      7.3000000000000114      25.550000000000011      56.575000000000003
   333   1      5.4750000000000076      23.725000000000016      60.225000000000009
   334   1      5.4750000000000076      25.550000000000011      62.050000000000011
   335   1      7.3000000000000114      23.725000000000016      62.050000000000011
   336   1      7.3000000000000114      25.550000000000011      60.225000000000009
   337   1      7.3000000000000114      23.725000000000016      65.700000000000017
   338   1      7.3000000000000114      25.550000000000011      63.875000000000007
   339   1      7.3000000000000114      25.550000000000011      67.525000000000006
   340   1      7.3000000000000114      27.375000000000011      18.250000000000011
   341   1      7.3000000000000114      29.200000000000006      16.425000000000011
   342   1      5.4750000000000076      29.200000000000006      21.900000000000009
   343   1      7.3000000000000114      27.375000000000011      21.900000000000009
   344   1      7.3000000000000114      29.200000000000006       20.07500000000001
   345   1      5.4750000000000076      27.375000000000011      23.725000000000016
   346   1      5.4750000000000076      29.200000000000006      25.550000000000011
   347   1      7.3000000000000114      27.375000000000011      25.550000000000011
   348   1      7.3000000000000114      29.200000000000006      23.725000000000016
   349   1      5.4750000000000076      27.375000000000011      27.375000000000011
   350   1      5.4750000000000076      29.200000000000006      29.200000000000006
   351   1      7.3000000000000114      27.375000000000011      29.200000000000006
   352   1      7.3000000000000114      29.200000000000006      27.375000000000011
   353   1      5.4750000000000076      27.375000000000011      31.025000000000013
   354   1      5.4750000000000076      29.200000000000006      32.850000000000016
   355   1      7.3000000000000114      27.375000000000011      32.850000000000016
   356   1      7.3000000000000114      29.200000000000006      31.025000000000013
   357   1      5.4750000000000076      27.375000000000011      34.675000000000011
   358   1      5.4750000000000076      29.200000000000006      36.500000000000014