model_files/Fe/Fe_30000/Fe_100/data.Fe_100_fcc_29449 (written by ASE) 

29449 	 atoms 
1  atom types
0.0                      68  xlo xhi
0.0                      68  ylo yhi
0.0                      68  zlo zhi


Atoms 

     1   1      67.999999999999986      67.999999999999986      67.999999999999986
     2   1      1.4349999999999949      1.4349999999999949      1.4349999999999949
     3   1      67.999999999999986      67.999999999999986      2.8699999999999939
     4   1      1.4349999999999949      1.4349999999999949      4.3049999999999926
     5   1      67.999999999999986      67.999999999999986      5.7399999999999949
     6   1      1.4349999999999949      1.4349999999999949      7.1749999999999972
     7   1      67.999999999999986      67.999999999999986      8.6099999999999923
     8   1      1.4349999999999949      1.4349999999999949      10.044999999999995
     9   1      67.999999999999986      67.999999999999986      11.479999999999993
    10   1      1.4349999999999949      1.4349999999999949      12.914999999999992
    11   1      67.999999999999986      67.999999999999986      14.349999999999994
    12   1      1.4349999999999949      1.4349999999999949      15.784999999999993
    13   1      67.999999999999986      67.999999999999986      17.219999999999992
    14   1      1.4349999999999949      1.4349999999999949       18.65499999999999
    15   1      67.999999999999986      67.999999999999986      20.089999999999993
    16   1      1.4349999999999949      1.4349999999999949      21.524999999999991
    17   1      67.999999999999986      67.999999999999986      22.959999999999994
    18   1      1.4349999999999949      1.4349999999999949      24.394999999999992
    19   1      67.999999999999986      67.999999999999986      25.829999999999991
    20   1      1.4349999999999949      1.4349999999999949      27.264999999999986
    21   1      67.999999999999986      67.999999999999986      28.699999999999992
    22   1      1.4349999999999949      1.4349999999999949      30.134999999999991
    23   1      67.999999999999986      67.999999999999986      31.569999999999993
    24   1      1.4349999999999949      1.4349999999999949      33.004999999999995
    25   1      67.999999999999986      67.999999999999986      34.439999999999991
    26   1      1.4349999999999949      1.4349999999999949      35.874999999999993
    27   1      67.999999999999986      67.999999999999986      37.309999999999988
    28   1      1.4349999999999949      1.4349999999999949       38.74499999999999
    29   1      67.999999999999986      67.999999999999986      40.179999999999986
    30   1      1.4349999999999949      1.4349999999999949      41.614999999999995
    31   1      67.999999999999986      67.999999999999986       43.04999999999999
    32   1      1.4349999999999949      1.4349999999999949      44.484999999999992
    33   1      67.999999999999986      67.999999999999986      45.919999999999987
    34   1      1.4349999999999949      1.4349999999999949      47.354999999999983
    35   1      67.999999999999986      67.999999999999986      48.789999999999992
    36   1      1.4349999999999949      1.4349999999999949      50.224999999999994
    37   1      67.999999999999986      67.999999999999986      51.659999999999989
    38   1      1.4349999999999949      1.4349999999999949      53.094999999999992
    39   1      67.999999999999986      67.999999999999986       54.52999999999998
    40   1      1.4349999999999949      1.4349999999999949      55.964999999999989
    41   1      67.999999999999986      67.999999999999986      57.399999999999991
    42   1      1.4349999999999949      1.4349999999999949      58.834999999999994
    43   1      67.999999999999986      67.999999999999986      60.269999999999989
    44   1      1.4349999999999949      1.4349999999999949      61.704999999999977
    45   1      67.999999999999986      67.999999999999986      63.139999999999986
    46   1      1.4349999999999949      1.4349999999999949      64.574999999999989
    47   1      67.999999999999986      67.999999999999986      66.009999999999991
    48   1      1.4349999999999949      1.4349999999999949      67.444999999999993
    49   1      67.999999999999986      67.999999999999986     0.87999999999998468
    50   1      67.999999999999986      2.8699999999999939      67.999999999999986
    51   1      1.4349999999999949      4.3049999999999926      1.4349999999999949
    52   1      67.999999999999986      2.8699999999999939      2.8699999999999939
    53   1      1.4349999999999949      4.3049999999999926      4.3049999999999926
    54   1      67.999999999999986      2.8699999999999939      5.7399999999999949
    55   1      1.4349999999999949      4.3049999999999926      7.1749999999999972
    56   1      67.999999999999986      2.8699999999999939      8.6099999999999923
    57   1      1.4349999999999949      4.3049999999999926      10.044999999999995
    58   1      67.999999999999986      2.8699999999999939      11.479999999999993
    59   1      1.4349999999999949      4.3049999999999926      12.914999999999992
    60   1      67.999999999999986      2.8699999999999939      14.349999999999994
    61   1      1.4349999999999949      4.3049999999999926      15.784999999999993
    62   1      67.999999999999986      2.8699999999999939      17.219999999999992
    63   1      1.4349999999999949      4.3049999999999926       18.65499999999999
    64   1      67.999999999999986      2.8699999999999939      20.089999999999993
    65   1      1.4349999999999949      4.3049999999999926      21.524999999999991
    66   1      67.999999999999986      2.8699999999999939      22.959999999999994
    67   1      1.4349999999999949      4.3049999999999926      24.394999999999992
    68   1      67.999999999999986      2.8699999999999939      25.829999999999991
    69   1      1.4349999999999949      4.3049999999999926      27.264999999999986
    70   1      67.999999999999986      2.8699999999999939      28.699999999999992
    71   1      1.4349999999999949      4.3049999999999926      30.134999999999991
    72   1      67.999999999999986      2.8699999999999939      31.569999999999993
    73   1      1.4349999999999949      4.3049999999999926      33.004999999999995
    74   1      67.999999999999986      2.8699999999999939      34.439999999999991
    75   1      1.4349999999999949      4.3049999999999926      35.874999999999993
    76   1      67.999999999999986      2.8699999999999939      37.309999999999988
    77   1      1.4349999999999949      4.3049999999999926       38.74499999999999
    78   1      67.999999999999986      2.8699999999999939      40.179999999999986
    79   1      1.4349999999999949      4.3049999999999926      41.614999999999995
    80   1      67.999999999999986      2.8699999999999939       43.04999999999999
    81   1      1.4349999999999949      4.3049999999999926      44.484999999999992
    82   1      67.999999999999986      2.8699999999999939      45.919999999999987
    83   1      1.4349999999999949      4.3049999999999926      47.354999999999983
    84   1      67.999999999999986      2.8699999999999939      48.789999999999992
    85   1      1.4349999999999949      4.3049999999999926      50.224999999999994
    86   1      67.999999999999986      2.8699999999999939      51.659999999999989
    87   1      1.4349999999999949      4.3049999999999926      53.094999999999992
    88   1      67.999999999999986      2.8699999999999939       54.52999999999998
    89   1      1.4349999999999949      4.3049999999999926      55.964999999999989
    90   1      67.999999999999986      2.8699999999999939      57.399999999999991
    91   1      1.4349999999999949      4.3049999999999926      58.834999999999994
    92   1      67.999999999999986      2.8699999999999939      60.269999999999989
    93   1      1.4349999999999949      4.3049999999999926      61.704999999999977
    94   1      67.999999999999986      2.8699999999999939      63.139999999999986
    95   1      1.4349999999999949      4.3049999999999926      64.574999999999989
    96   1      67.999999999999986      2.8699999999999939      66.009999999999991
    97   1      1.4349999999999949      4.3049999999999926      67.444999999999993
    98   1      67.999999999999986      2.8699999999999939     0.87999999999998468
    99   1      67.999999999999986      5.7399999999999949      67.999999999999986
   100   1      1.4349999999999949      7.1749999999999972      1.4349999999999949
   101   1      67.999999999999986      5.7399999999999949      2.8699999999999939
   102   1      1.4349999999999949      7.1749999999999972      4.3049999999999926
   103   1      67.999999999999986      5.7399999999999949      5.7399999999999949
   104   1      1.4349999999999949      7.1749999999999972      7.1749999999999972
   105   1      67.999999999999986      5.7399999999999949      8.6099999999999923
   106   1      1.4349999999999949      7.1749999999999972      10.044999999999995
   107   1      67.999999999999986      5.7399999999999949      11.479999999999993
   108   1      1.4349999999999949      7.1749999999999972      12.914999999999992
   109   1      67.999999999999986      5.7399999999999949      14.349999999999994
   110   1      1.4349999999999949      7.1749999999999972      15.784999999999993
   111   1      67.999999999999986      5.7399999999999949      17.219999999999992
   112   1      1.4349999999999949      7.1749999999999972       18.65499999999999
   113   1      67.999999999999986      5.7399999999999949      20.089999999999993
   114   1      1.4349999999999949      7.1749999999999972      21.524999999999991
   115   1      67.999999999999986      5.7399999999999949      22.959999999999994
   116   1      1.4349999999999949      7.1749999999999972      24.394999999999992
   117   1      67.999999999999986      5.7399999999999949      25.829999999999991
   118   1      1.4349999999999949      7.1749999999999972      27.264999999999986
   119   1      67.999999999999986      5.7399999999999949      28.699999999999992
   120   1      1.4349999999999949      7.1749999999999972      30.134999999999991
   121   1      67.999999999999986      5.7399999999999949      31.569999999999993
   122   1      1.4349999999999949      7.1749999999999972      33.004999999999995
   123   1      67.999999999999986      5.7399999999999949      34.439999999999991
   124   1      1.4349999999999949      7.1749999999999972      35.874999999999993
   125   1      67.999999999999986      5.7399999999999949      37.309999999999988
   126   1      1.4349999999999949      7.1749999999999972       38.74499999999999
   127   1      67.999999999999986      5.7399999999999949      40.179999999999986
   128   1      1.4349999999999949      7.1749999999999972      41.614999999999995
   129   1      67.999999999999986      5.7399999999999949       43.04999999999999
   130   1      1.4349999999999949      7.1749999999999972      44.484999999999992
   131   1      67.999999999999986      5.7399999999999949      45.919999999999987
   132   1      1.4349999999999949      7.1749999999999972      47.354999999999983
   133   1      67.999999999999986      5.7399999999999949      48.789999999999992
   134   1      1.4349999999999949      7.1749999999999972      50.224999999999994
   135   1      67.999999999999986      5.7399999999999949      51.659999999999989
   136   1      1.4349999999999949      7.1749999999999972      53.094999999999992
   137   1      67.999999999999986      5.7399999999999949       54.52999999999998
   138   1      1.4349999999999949      7.1749999999999972      55.964999999999989
   139   1      67.999999999999986      5.7399999999999949      57.399999999999991
   140   1      1.4349999999999949      7.1749999999999972      58.834999999999994
   141   1      67.999999999999986      5.7399999999999949      60.269999999999989
   142   1      1.4349999999999949      7.1749999999999972      61.704999999999977
   143   1      67.999999999999986      5.7399999999999949      63.139999999999986
   144   1      1.4349999999999949      7.1749999999999972      64.574999999999989
   145   1      67.999999999999986      5.7399999999999949      66.009999999999991
   146   1      1.4349999999999949      7.1749999999999972      67.444999999999993
   147   1      67.999999999999986      5.7399999999999949     0.87999999999998468
   148   1      67.999999999999986      8.6099999999999923      67.999999999999986
   149   1      1.4349999999999949      10.044999999999995      1.4349999999999949
   150   1      67.999999999999986      8.6099999999999923      2.8699999999999939
   151   1      1.4349999999999949      10.044999999999995      4.3049999999999926
   152   1      67.999999999999986      8.6099999999999923      5.7399999999999949
   153   1      1.4349999999999949      10.044999999999995      7.1749999999999972
   154   1      67.999999999999986      8.6099999999999923      8.6099999999999923
   155   1      1.4349999999999949      10.044999999999995      10.044999999999995
   156   1      67.999999999999986      8.6099999999999923      11.479999999999993
   157   1      1.4349999999999949      10.044999999999995      12.914999999999992
   158   1      67.999999999999986      8.6099999999999923      14.349999999999994
   159   1      1.4349999999999949      10.044999999999995      15.784999999999993
   160   1      67.999999999999986      8.6099999999999923      17.219999999999992
   161   1      1.4349999999999949      10.044999999999995       18.65499999999999
   162   1      67.999999999999986      8.6099999999999923      20.089999999999993
   163   1      1.4349999999999949      10.044999999999995      21.524999999999991
   164   1      67.999999999999986      8.6099999999999923      22.959999999999994
   165   1      1.4349999999999949      10.044999999999995      24.394999999999992
   166   1      67.999999999999986      8.6099999999999923      25.829999999999991
   167   1      1.4349999999999949      10.044999999999995      27.264999999999986
   168   1      67.999999999999986      8.6099999999999923      28.699999999999992
   169   1      1.4349999999999949      10.044999999999995      30.134999999999991
   170   1      67.999999999999986      8.6099999999999923      31.569999999999993
   171   1      1.4349999999999949      10.044999999999995      33.004999999999995
   172   1      67.999999999999986      8.6099999999999923      34.439999999999991
   173   1      1.4349999999999949      10.044999999999995      35.874999999999993
   174   1      67.999999999999986      8.6099999999999923      37.309999999999988
   175   1      1.4349999999999949      10.044999999999995       38.74499999999999
   176   1      67.999999999999986      8.6099999999999923      40.179999999999986
   177   1      1.4349999999999949      10.044999999999995      41.614999999999995
   178   1      67.999999999999986      8.6099999999999923       43.04999999999999
   179   1      1.4349999999999949      10.044999999999995      44.484999999999992
   180   1      67.999999999999986      8.6099999999999923      45.919999999999987
   181   1      1.4349999999999949      10.044999999999995      47.354999999999983
   182   1      67.999999999999986      8.6099999999999923      48.789999999999992
   183   1      1.4349999999999949      10.044999999999995      50.224999999999994
   184   1      67.999999999999986      8.6099999999999923      51.659999999999989
   185   1      1.4349999999999949      10.044999999999995      53.094999999999992
   186   1      67.999999999999986      8.6099999999999923       54.52999999999998
   187   1      1.4349999999999949      10.044999999999995      55.964999999999989
   188   1      67.999999999999986      8.6099999999999923      57.399999999999991
   189   1      1.4349999999999949      10.044999999999995      58.834999999999994
   190   1      67.999999999999986      8.6099999999999923      60.269999999999989
   191   1      1.4349999999999949      10.044999999999995      61.704999999999977
   192   1      67.999999999999986      8.6099999999999923      63.139999999999986
   193   1      1.4349999999999949      10.044999999999995      64.574999999999989
   194   1      67.999999999999986      8.6099999999999923      66.009999999999991
   195   1      1.4349999999999949      10.044999999999995      67.444999999999993
   196   1      67.999999999999986      8.6099999999999923     0.87999999999998468
   197   1      67.999999999999986      11.479999999999993      67.999999999999986
   198   1      1.4349999999999949      12.914999999999992      1.4349999999999949
   199   1      67.999999999999986      11.479999999999993      2.8699999999999939
   200   1      1.4349999999999949      12.914999999999992      4.3049999999999926
   201   1      67.999999999999986      11.479999999999993      5.7399999999999949
   202   1      1.4349999999999949      12.914999999999992      7.1749999999999972
   203   1      67.999999999999986      11.479999999999993      8.6099999999999923
   204   1      1.4349999999999949      12.914999999999992      10.044999999999995
   205   1      67.999999999999986      11.479999999999993      11.479999999999993
   206   1      1.4349999999999949      12.914999999999992      12.914999999999992
   207   1      67.999999999999986      11.479999999999993      14.349999999999994
   208   1      1.4349999999999949      12.914999999999992      15.784999999999993
   209   1      67.999999999999986      11.479999999999993      17.219999999999992
   210   1      1.4349999999999949      12.914999999999992       18.65499999999999
   211   1      67.999999999999986      11.479999999999993      20.089999999999993
   212   1      1.4349999999999949      12.914999999999992      21.524999999999991
   213   1      67.999999999999986      11.479999999999993      22.959999999999994
   214   1      1.4349999999999949      12.914999999999992      24.394999999999992
   215   1      67.999999999999986      11.479999999999993      25.829999999999991
   216   1      1.4349999999999949      12.914999999999992      27.264999999999986
   217   1      67.999999999999986      11.479999999999993      28.699999999999992
   218   1      1.4349999999999949      12.914999999999992      30.134999999999991
   219   1      67.999999999999986      11.479999999999993      31.569999999999993
   220   1      1.4349999999999949      12.914999999999992      33.004999999999995
   221   1      67.999999999999986      11.479999999999993      34.439999999999991
   222   1      1.4349999999999949      12.914999999999992      35.874999999999993
   223   1      67.999999999999986      11.479999999999993      37.309999999999988
   224   1      1.4349999999999949      12.914999999999992       38.74499999999999
   225   1      67.999999999999986      11.479999999999993      40.179999999999986
   226   1      1.4349999999999949      12.914999999999992      41.614999999999995
   227   1      67.999999999999986      11.479999999999993       43.04999999999999
   228   1      1.4349999999999949      12.914999999999992      44.484999999999992
   229   1      67.999999999999986      11.479999999999993      45.919999999999987
   230   1      1.4349999999999949      12.914999999999992      47.354999999999983
   231   1      67.999999999999986      11.479999999999993      48.789999999999992
   232   1      1.4349999999999949      12.914999999999992      50.224999999999994
   233   1      67.999999999999986      11.479999999999993      51.659999999999989
   234   1      1.4349999999999949      12.914999999999992      53.094999999999992
   235   1      67.999999999999986      11.479999999999993       54.52999999999998
   236   1      1.4349999999999949      12.914999999999992      55.964999999999989
   237   1      67.999999999999986      11.479999999999993      57.399999999999991
   238   1      1.4349999999999949      12.914999999999992      58.834999999999994
   239   1      67.999999999999986      11.479999999999993      60.269999999999989
   240   1      1.4349999999999949      12.914999999999992      61.704999999999977
   241   1      67.999999999999986      11.479999999999993      63.139999999999986
   242   1      1.4349999999999949      12.914999999999992      64.574999999999989
   243   1      67.999999999999986      11.479999999999993      66.009999999999991
   244   1      1.4349999999999949      12.914999999999992      67.444999999999993
   245   1      67.999999999999986      11.479999999999993     0.87999999999998468
   246   1      67.999999999999986      14.349999999999994      67.999999999999986
   247   1      1.4349999999999949      15.784999999999993      1.4349999999999949
   248   1      67.999999999999986      14.349999999999994      2.8699999999999939
   249   1      1.4349999999999949      15.784999999999993      4.3049999999999926
   250   1      67.999999999999986      14.349999999999994      5.7399999999999949
   251   1      1.4349999999999949      15.784999999999993      7.1749999999999972
   252   1      67.999999999999986      14.349999999999994      8.6099999999999923
   253   1      1.4349999999999949      15.784999999999993      10.044999999999995
   254   1      67.999999999999986      14.349999999999994      11.479999999999993
   255   1      1.4349999999999949      15.784999999999993      12.914999999999992
   256   1      67.999999999999986      14.349999999999994      14.349999999999994
   257   1      1.4349999999999949      15.784999999999993      15.784999999999993
   258   1      67.999999999999986      14.349999999999994      17.219999999999992
   259   1      1.4349999999999949      15.784999999999993       18.65499999999999
   260   1      67.999999999999986      14.349999999999994      20.089999999999993
   261   1      1.4349999999999949      15.784999999999993      21.524999999999991
   262   1      67.999999999999986      14.349999999999994      22.959999999999994
   263   1      1.4349999999999949      15.784999999999993      24.394999999999992
   264   1      67.999999999999986      14.349999999999994      25.829999999999991
   265   1      1.4349999999999949      15.784999999999993      27.264999999999986
   266   1      67.999999999999986      14.349999999999994      28.699999999999992
   267   1      1.4349999999999949      15.784999999999993      30.134999999999991
   268   1      67.999999999999986      14.349999999999994      31.569999999999993
   269   1      1.4349999999999949      15.784999999999993      33.004999999999995
   270   1      67.999999999999986      14.349999999999994      34.439999999999991
   271   1      1.4349999999999949      15.784999999999993      35.874999999999993
   272   1      67.999999999999986      14.349999999999994      37.309999999999988
   273   1      1.4349999999999949      15.784999999999993       38.74499999999999
   274   1      67.999999999999986      14.349999999999994      40.179999999999986
   275   1      1.4349999999999949      15.784999999999993      41.614999999999995
   276   1      67.999999999999986      14.349999999999994       43.04999999999999
   277   1      1.4349999999999949      15.784999999999993      44.484999999999992
   278   1      67.999999999999986      14.349999999999994      45.919999999999987
   279   1      1.4349999999999949      15.784999999999993      47.354999999999983
   280   1      67.999999999999986      14.349999999999994      48.789999999999992
   281   1      1.4349999999999949      15.784999999999993      50.224999999999994
   282   1      67.999999999999986      14.349999999999994      51.659999999999989
   283   1      1.4349999999999949      15.784999999999993      53.094999999999992
   284   1      67.999999999999986      14.349999999999994       54.52999999999998
   285   1      1.4349999999999949      15.784999999999993      55.964999999999989
   286   1      67.999999999999986      14.349999999999994      57.399999999999991
   287   1      1.4349999999999949      15.784999999999993      58.834999999999994
   288   1      67.999999999999986      14.349999999999994      60.269999999999989
   289   1      1.4349999999999949      15.784999999999993      61.704999999999977
   290   1      67.999999999999986      14.349999999999994      63.139999999999986
   291   1      1.4349999999999949      15.784999999999993      64.574999999999989
   292   1      67.999999999999986      14.349999999999994      66.009999999999991
   293   1      1.4349999999999949      15.784999999999993      67.444999999999993
   294   1      67.999999999999986      14.349999999999994     0.87999999999998468
   295   1      67.999999999999986      17.219999999999992      67.999999999999986
   296   1      1.4349999999999949       18.65499999999999      1.4349999999999949
   297   1      67.999999999999986      17.219999999999992      2.8699999999999939
   298   1      1.4349999999999949       18.65499999999999      4.3049999999999926
   299   1      67.999999999999986      17.219999999999992      5.7399999999999949
   300   1      1.4349999999999949       18.65499999999999      7.1749999999999972
   301   1      67.999999999999986      17.219999999999992      8.6099999999999923
   302   1      1.4349999999999949       18.65499999999999      10.044999999999995
   303   1      67.999999999999986      17.219999999999992      11.479999999999993
   304   1      1.4349999999999949       18.65499999999999      12.914999999999992
   305   1      67.999999999999986      17.219999999999992      14.349999999999994
   306   1      1.4349999999999949       18.65499999999999      15.784999999999993
   307   1      67.999999999999986      17.219999999999992      17.219999999999992
   308   1      1.4349999999999949       18.65499999999999       18.65499999999999
   309   1      67.999999999999986      17.219999999999992      20.089999999999993
   310   1      1.4349999999999949       18.65499999999999      21.524999999999991
   311   1      67.999999999999986      17.219999999999992      22.959999999999994
   312   1      1.4349999999999949       18.65499999999999      24.394999999999992
   313   1      67.999999999999986      17.219999999999992      25.829999999999991
   314   1      1.4349999999999949       18.65499999999999      27.264999999999986
   315   1      67.999999999999986      17.219999999999992      28.699999999999992
   316   1      1.4349999999999949       18.65499999999999      30.134999999999991
   317   1      67.999999999999986      17.219999999999992      31.569999999999993
   318   1      1.4349999999999949       18.65499999999999      33.004999999999995
   319   1      67.999999999999986      17.219999999999992      34.439999999999991
   320   1      1.4349999999999949       18.65499999999999      35.874999999999993
   321   1      67.999999999999986      17.219999999999992      37.309999999999988
   322   1      1.4349999999999949       18.65499999999999       38.74499999999999
   323   1      67.999999999999986      17.219999999999992      40.179999999999986
   324   1      1.4349999999999949       18.65499999999999      41.614999999999995
   325   1      67.999999999999986      17.219999999999992       43.04999999999999
   326   1      1.4349999999999949       18.65499999999999      44.484999999999992
   327   1      67.999999999999986      17.219999999999992      45.919999999999987
   328   1      1.4349999999999949       18.65499999999999      47.354999999999983
   329   1      67.999999999999986      17.219999999999992      48.789999999999992
   330   1      1.4349999999999949       18.65499999999999      50.224999999999994
   331   1      67.999999999999986      17.219999999999992      51.659999999999989
   332   1      1.4349999999999949       18.65499999999999      53.094999999999992
   333   1      67.999999999999986      17.219999999999992       54.52999999999998
   334   1      1.4349999999999949       18.65499999999999      55.964999999999989
   335   1      67.999999999999986      17.219999999999992      57.399999999999991
   336   1      1.4349999999999949       18.65499999999999      58.834999999999994
   337   1      67.999999999999986      17.219999999999992      60.269999999999989
   338   1      1.4349999999999949       18.65499999999999      61.704999999999977
   339   1      67.999999999999986      17.219999999999992      63.139999999999986
   340   1      1.4349999999999949       18.65499999999999      64.574999999999989
   341   1      67.999999999999986      17.219999999999992      66.009999999999991
   342   1      1.4349999999999949       18.65499999999999      67.444999999999993
   343   1      67.999999999999986      17.219999999999992     0.87999999999998468
   344   1      67.999999999999986      20.089999999999993      67.999999999999986
   345   1      1.4349999999999949      21.524999999999991      1.4349999999999949
   346   1      67.999999999999986      20.089999999999993      2.8699999999999939
   347   1      1.4349999999999949      21.524999999999991      4.3049999999999926
   348   1      67.999999999999986      20.089999999999993      5.7399999999999949
   349   1      1.4349999999999949      21.524999999999991      7.1749999999999972
   350   1      67.999999999999986      20.089999999999993      8.6099999999999923
   351   1      1.4349999999999949      21.524999999999991      10.044999999999995
   352   1      67.999999999999986      20.089999999999993      11.479999999999993
   353   1      1.4349999999999949      21.524999999999991      12.914999999999992
   354   1      67.999999999999986      20.089999999999993      14.349999999999994
   355   1      1.4349999999999949      21.524999999999991      15.784999999999993
   356   1      67.999999999999986      20.089999999999993      17.219999999999992
   357   1      1.4349999999999949      21.524999999999991       18.65499999999999
   358   1      67.999999999999986      20.089999999999993      20.089999999999993