model_files/Pt/Pt_10000/Pt_432/data.Pt_432_fcc_9957 (written by ASE) 

9957 	 atoms 
1  atom types
0.0                      78  xlo xhi
0.0                      78  ylo yhi
0.0                      78  zlo zhi


Atoms 

     1   1      1.9600000000000009                   33.32      39.199999999999989
     2   1                       0      37.240000000000002      37.240000000000002
     3   1      1.9600000000000009      35.280000000000001      37.240000000000002
     4   1      1.9600000000000009      37.240000000000002      35.280000000000001
     5   1                       0      37.240000000000002      41.159999999999997
     6   1      1.9600000000000009      35.280000000000001      41.159999999999997
     7   1      1.9600000000000009      37.240000000000002      39.199999999999989
     8   1      1.9600000000000009      37.240000000000002      43.119999999999997
     9   1      1.9600000000000009      39.199999999999989                   33.32
    10   1                       0      41.159999999999997      37.240000000000002
    11   1      1.9600000000000009      39.199999999999989      37.240000000000002
    12   1      1.9600000000000009      41.159999999999997      35.280000000000001
    13   1                       0      39.199999999999989      39.199999999999989
    14   1                       0      41.159999999999997      41.159999999999997
    15   1      1.9600000000000009      39.199999999999989      41.159999999999997
    16   1      1.9600000000000009      41.159999999999997      39.199999999999989
    17   1      1.9600000000000009      39.199999999999989      45.079999999999998
    18   1      1.9600000000000009      41.159999999999997      43.119999999999997
    19   1      1.9600000000000009      43.119999999999997      37.240000000000002
    20   1      1.9600000000000009      43.119999999999997      41.159999999999997
    21   1      1.9600000000000009      45.079999999999998      39.199999999999989
    22   1      5.8800000000000017      29.399999999999999      39.199999999999989
    23   1      3.9199999999999946                   33.32      37.240000000000002
    24   1      5.8800000000000017      31.359999999999999      37.240000000000002
    25   1      5.8800000000000017                   33.32      35.280000000000001
    26   1      3.9199999999999946      31.359999999999999      39.199999999999989
    27   1      3.9199999999999946                   33.32      41.159999999999997
    28   1      5.8800000000000017      31.359999999999999      41.159999999999997
    29   1      5.8800000000000017                   33.32      39.199999999999989
    30   1      5.8800000000000017                   33.32      43.119999999999997
    31   1      3.9199999999999946      37.240000000000002                   33.32
    32   1      5.8800000000000017      35.280000000000001                   33.32
    33   1      5.8800000000000017      37.240000000000002      31.359999999999999
    34   1      3.9199999999999946      35.280000000000001      35.280000000000001
    35   1      3.9199999999999946      37.240000000000002      37.240000000000002
    36   1      5.8800000000000017      35.280000000000001      37.240000000000002
    37   1      5.8800000000000017      37.240000000000002      35.280000000000001
    38   1      3.9199999999999946      35.280000000000001      39.199999999999989
    39   1      3.9199999999999946      37.240000000000002      41.159999999999997
    40   1      5.8800000000000017      35.280000000000001      41.159999999999997
    41   1      5.8800000000000017      37.240000000000002      39.199999999999989
    42   1      3.9199999999999946      35.280000000000001      43.119999999999997
    43   1      3.9199999999999946      37.240000000000002      45.079999999999998
    44   1      5.8800000000000017      35.280000000000001      45.079999999999998
    45   1      5.8800000000000017      37.240000000000002      43.119999999999997
    46   1      5.8800000000000017      37.240000000000002      47.039999999999999
    47   1      5.8800000000000017      39.199999999999989      29.399999999999999
    48   1      3.9199999999999946      39.199999999999989      31.359999999999999
    49   1      3.9199999999999946      41.159999999999997                   33.32
    50   1      5.8800000000000017      39.199999999999989                   33.32
    51   1      5.8800000000000017      41.159999999999997      31.359999999999999
    52   1      3.9199999999999946      39.199999999999989      35.280000000000001
    53   1      3.9199999999999946      41.159999999999997      37.240000000000002
    54   1      5.8800000000000017      39.199999999999989      37.240000000000002
    55   1      5.8800000000000017      41.159999999999997      35.280000000000001
    56   1      3.9199999999999946      39.199999999999989      39.199999999999989
    57   1      3.9199999999999946      41.159999999999997      41.159999999999997
    58   1      5.8800000000000017      39.199999999999989      41.159999999999997
    59   1      5.8800000000000017      41.159999999999997      39.199999999999989
    60   1      3.9199999999999946      39.199999999999989      43.119999999999997
    61   1      3.9199999999999946      41.159999999999997      45.079999999999998
    62   1      5.8800000000000017      39.199999999999989      45.079999999999998
    63   1      5.8800000000000017      41.159999999999997      43.119999999999997
    64   1      3.9199999999999946      39.199999999999989      47.039999999999999
    65   1      5.8800000000000017      39.199999999999989                      49
    66   1      5.8800000000000017      41.159999999999997      47.039999999999999
    67   1      5.8800000000000017      43.119999999999997                   33.32
    68   1      3.9199999999999946      43.119999999999997      35.280000000000001
    69   1      3.9199999999999946      45.079999999999998      37.240000000000002
    70   1      5.8800000000000017      43.119999999999997      37.240000000000002
    71   1      5.8800000000000017      45.079999999999998      35.280000000000001
    72   1      3.9199999999999946      43.119999999999997      39.199999999999989
    73   1      3.9199999999999946      45.079999999999998      41.159999999999997
    74   1      5.8800000000000017      43.119999999999997      41.159999999999997
    75   1      5.8800000000000017      45.079999999999998      39.199999999999989
    76   1      3.9199999999999946      43.119999999999997      43.119999999999997
    77   1      5.8800000000000017      43.119999999999997      45.079999999999998
    78   1      5.8800000000000017      45.079999999999998      43.119999999999997
    79   1      5.8800000000000017      47.039999999999999      37.240000000000002
    80   1      3.9199999999999946      47.039999999999999      39.199999999999989
    81   1      5.8800000000000017      47.039999999999999      41.159999999999997
    82   1      5.8800000000000017                      49      39.199999999999989
    83   1      9.7999999999999972      25.479999999999997      35.280000000000001
    84   1      9.7999999999999972      25.479999999999997      39.199999999999989
    85   1      9.7999999999999972      25.479999999999997      43.119999999999997
    86   1      7.8399999999999954      29.399999999999999                   33.32
    87   1      9.7999999999999972      27.439999999999994                   33.32
    88   1      9.7999999999999972      29.399999999999999      31.359999999999999
    89   1      7.8399999999999954      29.399999999999999      37.240000000000002
    90   1      9.7999999999999972      27.439999999999994      37.240000000000002
    91   1      9.7999999999999972      29.399999999999999      35.280000000000001
    92   1      7.8399999999999954      27.439999999999994      39.199999999999989
    93   1      7.8399999999999954      29.399999999999999      41.159999999999997
    94   1      9.7999999999999972      27.439999999999994      41.159999999999997
    95   1      9.7999999999999972      29.399999999999999      39.199999999999989
    96   1      7.8399999999999954      29.399999999999999      45.079999999999998
    97   1      9.7999999999999972      27.439999999999994      45.079999999999998
    98   1      9.7999999999999972      29.399999999999999      43.119999999999997
    99   1      9.7999999999999972      29.399999999999999      47.039999999999999
   100   1      7.8399999999999954                   33.32      29.399999999999999
   101   1      9.7999999999999972      31.359999999999999      29.399999999999999
   102   1      9.7999999999999972                   33.32      27.439999999999994
   103   1      7.8399999999999954      31.359999999999999      31.359999999999999
   104   1      7.8399999999999954                   33.32                   33.32
   105   1      9.7999999999999972      31.359999999999999                   33.32
   106   1      9.7999999999999972                   33.32      31.359999999999999
   107   1      7.8399999999999954      31.359999999999999      35.280000000000001
   108   1      7.8399999999999954                   33.32      37.240000000000002
   109   1      9.7999999999999972      31.359999999999999      37.240000000000002
   110   1      9.7999999999999972                   33.32      35.280000000000001
   111   1      7.8399999999999954      31.359999999999999      39.199999999999989
   112   1      7.8399999999999954                   33.32      41.159999999999997
   113   1      9.7999999999999972      31.359999999999999      41.159999999999997
   114   1      9.7999999999999972                   33.32      39.199999999999989
   115   1      7.8399999999999954      31.359999999999999      43.119999999999997
   116   1      7.8399999999999954                   33.32      45.079999999999998
   117   1      9.7999999999999972      31.359999999999999      45.079999999999998
   118   1      9.7999999999999972                   33.32      43.119999999999997
   119   1      7.8399999999999954      31.359999999999999      47.039999999999999
   120   1      7.8399999999999954                   33.32                      49
   121   1      9.7999999999999972      31.359999999999999                      49
   122   1      9.7999999999999972                   33.32      47.039999999999999
   123   1      9.7999999999999972                   33.32      50.959999999999994
   124   1      9.7999999999999972      35.280000000000001      25.479999999999997
   125   1      7.8399999999999954      37.240000000000002      29.399999999999999
   126   1      9.7999999999999972      35.280000000000001      29.399999999999999
   127   1      9.7999999999999972      37.240000000000002      27.439999999999994
   128   1      7.8399999999999954      35.280000000000001      31.359999999999999
   129   1      7.8399999999999954      37.240000000000002                   33.32
   130   1      9.7999999999999972      35.280000000000001                   33.32
   131   1      9.7999999999999972      37.240000000000002      31.359999999999999
   132   1      7.8399999999999954      35.280000000000001      35.280000000000001
   133   1      7.8399999999999954      37.240000000000002      37.240000000000002
   134   1      9.7999999999999972      35.280000000000001      37.240000000000002
   135   1      9.7999999999999972      37.240000000000002      35.280000000000001
   136   1      7.8399999999999954      35.280000000000001      39.199999999999989
   137   1      7.8399999999999954      37.240000000000002      41.159999999999997
   138   1      9.7999999999999972      35.280000000000001      41.159999999999997
   139   1      9.7999999999999972      37.240000000000002      39.199999999999989
   140   1      7.8399999999999954      35.280000000000001      43.119999999999997
   141   1      7.8399999999999954      37.240000000000002      45.079999999999998
   142   1      9.7999999999999972      35.280000000000001      45.079999999999998
   143   1      9.7999999999999972      37.240000000000002      43.119999999999997
   144   1      7.8399999999999954      35.280000000000001      47.039999999999999
   145   1      7.8399999999999954      37.240000000000002                      49
   146   1      9.7999999999999972      35.280000000000001                      49
   147   1      9.7999999999999972      37.240000000000002      47.039999999999999
   148   1      9.7999999999999972      35.280000000000001      52.919999999999987
   149   1      9.7999999999999972      37.240000000000002      50.959999999999994
   150   1      9.7999999999999972      39.199999999999989      25.479999999999997
   151   1      7.8399999999999954      39.199999999999989      27.439999999999994
   152   1      7.8399999999999954      41.159999999999997      29.399999999999999
   153   1      9.7999999999999972      39.199999999999989      29.399999999999999
   154   1      9.7999999999999972      41.159999999999997      27.439999999999994
   155   1      7.8399999999999954      39.199999999999989      31.359999999999999
   156   1      7.8399999999999954      41.159999999999997                   33.32
   157   1      9.7999999999999972      39.199999999999989                   33.32
   158   1      9.7999999999999972      41.159999999999997      31.359999999999999
   159   1      7.8399999999999954      39.199999999999989      35.280000000000001
   160   1      7.8399999999999954      41.159999999999997      37.240000000000002
   161   1      9.7999999999999972      39.199999999999989      37.240000000000002
   162   1      9.7999999999999972      41.159999999999997      35.280000000000001
   163   1      7.8399999999999954      39.199999999999989      39.199999999999989
   164   1      7.8399999999999954      41.159999999999997      41.159999999999997
   165   1      9.7999999999999972      39.199999999999989      41.159999999999997
   166   1      9.7999999999999972      41.159999999999997      39.199999999999989
   167   1      7.8399999999999954      39.199999999999989      43.119999999999997
   168   1      7.8399999999999954      41.159999999999997      45.079999999999998
   169   1      9.7999999999999972      39.199999999999989      45.079999999999998
   170   1      9.7999999999999972      41.159999999999997      43.119999999999997
   171   1      7.8399999999999954      39.199999999999989      47.039999999999999
   172   1      7.8399999999999954      41.159999999999997                      49
   173   1      9.7999999999999972      39.199999999999989                      49
   174   1      9.7999999999999972      41.159999999999997      47.039999999999999
   175   1      7.8399999999999954      39.199999999999989      50.959999999999994
   176   1      9.7999999999999972      39.199999999999989      52.919999999999987
   177   1      9.7999999999999972      41.159999999999997      50.959999999999994
   178   1      9.7999999999999972      43.119999999999997      25.479999999999997
   179   1      7.8399999999999954      45.079999999999998      29.399999999999999
   180   1      9.7999999999999972      43.119999999999997      29.399999999999999
   181   1      9.7999999999999972      45.079999999999998      27.439999999999994
   182   1      7.8399999999999954      43.119999999999997      31.359999999999999
   183   1      7.8399999999999954      45.079999999999998                   33.32
   184   1      9.7999999999999972      43.119999999999997                   33.32
   185   1      9.7999999999999972      45.079999999999998      31.359999999999999
   186   1      7.8399999999999954      43.119999999999997      35.280000000000001
   187   1      7.8399999999999954      45.079999999999998      37.240000000000002
   188   1      9.7999999999999972      43.119999999999997      37.240000000000002
   189   1      9.7999999999999972      45.079999999999998      35.280000000000001
   190   1      7.8399999999999954      43.119999999999997      39.199999999999989
   191   1      7.8399999999999954      45.079999999999998      41.159999999999997
   192   1      9.7999999999999972      43.119999999999997      41.159999999999997
   193   1      9.7999999999999972      45.079999999999998      39.199999999999989
   194   1      7.8399999999999954      43.119999999999997      43.119999999999997
   195   1      7.8399999999999954      45.079999999999998      45.079999999999998
   196   1      9.7999999999999972      43.119999999999997      45.079999999999998
   197   1      9.7999999999999972      45.079999999999998      43.119999999999997
   198   1      7.8399999999999954      43.119999999999997      47.039999999999999
   199   1      7.8399999999999954      45.079999999999998                      49
   200   1      9.7999999999999972      43.119999999999997                      49
   201   1      9.7999999999999972      45.079999999999998      47.039999999999999
   202   1      9.7999999999999972      43.119999999999997      52.919999999999987
   203   1      9.7999999999999972      45.079999999999998      50.959999999999994
   204   1      9.7999999999999972      47.039999999999999      29.399999999999999
   205   1      7.8399999999999954      47.039999999999999      31.359999999999999
   206   1      7.8399999999999954                      49                   33.32
   207   1      9.7999999999999972      47.039999999999999                   33.32
   208   1      9.7999999999999972                      49      31.359999999999999
   209   1      7.8399999999999954      47.039999999999999      35.280000000000001
   210   1      7.8399999999999954                      49      37.240000000000002
   211   1      9.7999999999999972      47.039999999999999      37.240000000000002
   212   1      9.7999999999999972                      49      35.280000000000001
   213   1      7.8399999999999954      47.039999999999999      39.199999999999989
   214   1      7.8399999999999954                      49      41.159999999999997
   215   1      9.7999999999999972      47.039999999999999      41.159999999999997
   216   1      9.7999999999999972                      49      39.199999999999989
   217   1      7.8399999999999954      47.039999999999999      43.119999999999997
   218   1      7.8399999999999954                      49      45.079999999999998
   219   1      9.7999999999999972      47.039999999999999      45.079999999999998
   220   1      9.7999999999999972                      49      43.119999999999997
   221   1      7.8399999999999954      47.039999999999999      47.039999999999999
   222   1      9.7999999999999972      47.039999999999999                      49
   223   1      9.7999999999999972                      49      47.039999999999999
   224   1      9.7999999999999972      50.959999999999994                   33.32
   225   1      9.7999999999999972      50.959999999999994      37.240000000000002
   226   1      9.7999999999999972      52.919999999999987      35.280000000000001
   227   1      7.8399999999999954      50.959999999999994      39.199999999999989
   228   1      9.7999999999999972      50.959999999999994      41.159999999999997
   229   1      9.7999999999999972      52.919999999999987      39.199999999999989
   230   1      9.7999999999999972      50.959999999999994      45.079999999999998
   231   1      9.7999999999999972      52.919999999999987      43.119999999999997
   232   1      13.719999999999997      17.640000000000001      39.199999999999989
   233   1      11.759999999999998      21.559999999999999      37.240000000000002
   234   1      13.719999999999997      19.599999999999994      37.240000000000002
   235   1      13.719999999999997      21.559999999999999      35.280000000000001
   236   1      11.759999999999998      21.559999999999999      41.159999999999997
   237   1      13.719999999999997      19.599999999999994      41.159999999999997
   238   1      13.719999999999997      21.559999999999999      39.199999999999989
   239   1      13.719999999999997      21.559999999999999      43.119999999999997
   240   1      13.719999999999997      25.479999999999997      27.439999999999994
   241   1      11.759999999999998      25.479999999999997                   33.32
   242   1      13.719999999999997      23.519999999999996                   33.32
   243   1      13.719999999999997      25.479999999999997      31.359999999999999
   244   1      11.759999999999998      23.519999999999996      35.280000000000001
   245   1      11.759999999999998      25.479999999999997      37.240000000000002
   246   1      13.719999999999997      23.519999999999996      37.240000000000002
   247   1      13.719999999999997      25.479999999999997      35.280000000000001
   248   1      11.759999999999998      23.519999999999996      39.199999999999989
   249   1      11.759999999999998      25.479999999999997      41.159999999999997
   250   1      13.719999999999997      23.519999999999996      41.159999999999997
   251   1      13.719999999999997      25.479999999999997      39.199999999999989
   252   1      11.759999999999998      23.519999999999996      43.119999999999997
   253   1      11.759999999999998      25.479999999999997      45.079999999999998
   254   1      13.719999999999997      23.519999999999996      45.079999999999998
   255   1      13.719999999999997      25.479999999999997      43.119999999999997
   256   1      13.719999999999997      25.479999999999997      47.039999999999999
   257   1      13.719999999999997      25.479999999999997      50.959999999999994
   258   1      13.719999999999997      27.439999999999994      25.479999999999997
   259   1      11.759999999999998      29.399999999999999      29.399999999999999
   260   1      13.719999999999997      27.439999999999994      29.399999999999999
   261   1      13.719999999999997      29.399999999999999      27.439999999999994
   262   1      11.759999999999998      27.439999999999994      31.359999999999999
   263   1      11.759999999999998      29.399999999999999                   33.32
   264   1      13.719999999999997      27.439999999999994                   33.32
   265   1      13.719999999999997      29.399999999999999      31.359999999999999
   266   1      11.759999999999998      27.439999999999994      35.280000000000001
   267   1      11.759999999999998      29.399999999999999      37.240000000000002
   268   1      13.719999999999997      27.439999999999994      37.240000000000002
   269   1      13.719999999999997      29.399999999999999      35.280000000000001
   270   1      11.759999999999998      27.439999999999994      39.199999999999989
   271   1      11.759999999999998      29.399999999999999      41.159999999999997
   272   1      13.719999999999997      27.439999999999994      41.159999999999997
   273   1      13.719999999999997      29.399999999999999      39.199999999999989
   274   1      11.759999999999998      27.439999999999994      43.119999999999997
   275   1      11.759999999999998      29.399999999999999      45.079999999999998
   276   1      13.719999999999997      27.439999999999994      45.079999999999998
   277   1      13.719999999999997      29.399999999999999      43.119999999999997
   278   1      11.759999999999998      27.439999999999994      47.039999999999999
   279   1      11.759999999999998      29.399999999999999                      49
   280   1      13.719999999999997      27.439999999999994                      49
   281   1      13.719999999999997      29.399999999999999      47.039999999999999
   282   1      13.719999999999997      27.439999999999994      52.919999999999987
   283   1      13.719999999999997      29.399999999999999      50.959999999999994
   284   1      11.759999999999998                   33.32      25.479999999999997
   285   1      13.719999999999997      31.359999999999999      25.479999999999997
   286   1      13.719999999999997                   33.32      23.519999999999996
   287   1      11.759999999999998      31.359999999999999      27.439999999999994
   288   1      11.759999999999998                   33.32      29.399999999999999
   289   1      13.719999999999997      31.359999999999999      29.399999999999999
   290   1      13.719999999999997                   33.32      27.439999999999994
   291   1      11.759999999999998      31.359999999999999      31.359999999999999
   292   1      11.759999999999998                   33.32                   33.32
   293   1      13.719999999999997      31.359999999999999                   33.32
   294   1      13.719999999999997                   33.32      31.359999999999999
   295   1      11.759999999999998      31.359999999999999      35.280000000000001
   296   1      11.759999999999998                   33.32      37.240000000000002
   297   1      13.719999999999997      31.359999999999999      37.240000000000002
   298   1      13.719999999999997                   33.32      35.280000000000001
   299   1      11.759999999999998      31.359999999999999      39.199999999999989
   300   1      11.759999999999998                   33.32      41.159999999999997
   301   1      13.719999999999997      31.359999999999999      41.159999999999997
   302   1      13.719999999999997                   33.32      39.199999999999989
   303   1      11.759999999999998      31.359999999999999      43.119999999999997
   304   1      11.759999999999998                   33.32      45.079999999999998
   305   1      13.719999999999997      31.359999999999999      45.079999999999998
   306   1      13.719999999999997                   33.32      43.119999999999997
   307   1      11.759999999999998      31.359999999999999      47.039999999999999
   308   1      11.759999999999998                   33.32                      49
   309   1      13.719999999999997      31.359999999999999                      49
   310   1      13.719999999999997                   33.32      47.039999999999999
   311   1      11.759999999999998      31.359999999999999      50.959999999999994
   312   1      11.759999999999998                   33.32      52.919999999999987
   313   1      13.719999999999997      31.359999999999999      52.919999999999987
   314   1      13.719999999999997                   33.32      50.959999999999994
   315   1      13.719999999999997                   33.32      54.879999999999988
   316   1      11.759999999999998      37.240000000000002      21.559999999999999
   317   1      13.719999999999997      35.280000000000001      21.559999999999999
   318   1      13.719999999999997      37.240000000000002      19.599999999999994
   319   1      11.759999999999998      35.280000000000001      23.519999999999996
   320   1      11.759999999999998      37.240000000000002      25.479999999999997
   321   1      13.719999999999997      35.280000000000001      25.479999999999997
   322   1      13.719999999999997      37.240000000000002      23.519999999999996
   323   1      11.759999999999998      35.280000000000001      27.439999999999994
   324   1      11.759999999999998      37.240000000000002      29.399999999999999
   325   1      13.719999999999997      35.280000000000001      29.399999999999999
   326   1      13.719999999999997      37.240000000000002      27.439999999999994
   327   1      11.759999999999998      35.280000000000001      31.359999999999999
   328   1      11.759999999999998      37.240000000000002                   33.32
   329   1      13.719999999999997      35.280000000000001                   33.32
   330   1      13.719999999999997      37.240000000000002      31.359999999999999
   331   1      11.759999999999998      35.280000000000001      35.280000000000001
   332   1      11.759999999999998      37.240000000000002      37.240000000000002
   333   1      13.719999999999997      35.280000000000001      37.240000000000002
   334   1      13.719999999999997      37.240000000000002      35.280000000000001
   335   1      11.759999999999998      35.280000000000001      39.199999999999989
   336   1      11.759999999999998      37.240000000000002      41.159999999999997
   337   1      13.719999999999997      35.280000000000001      41.159999999999997
   338   1      13.719999999999997      37.240000000000002      39.199999999999989
   339   1      11.759999999999998      35.280000000000001      43.119999999999997
   340   1      11.759999999999998      37.240000000000002      45.079999999999998
   341   1      13.719999999999997      35.280000000000001      45.079999999999998
   342   1      13.719999999999997      37.240000000000002      43.119999999999997
   343   1      11.759999999999998      35.280000000000001      47.039999999999999
   344   1      11.759999999999998      37.240000000000002                      49
   345   1      13.719999999999997      35.280000000000001                      49
   346   1      13.719999999999997      37.240000000000002      47.039999999999999
   347   1      11.759999999999998      35.280000000000001      50.959999999999994
   348   1      11.759999999999998      37.240000000000002      52.919999999999987
   349   1      13.719999999999997      35.280000000000001      52.919999999999987
   350   1      13.719999999999997      37.240000000000002      50.959999999999994
   351   1      11.759999999999998      35.280000000000001      54.879999999999988
   352   1      11.759999999999998      37.240000000000002      56.839999999999989
   353   1      13.719999999999997      35.280000000000001      56.839999999999989
   354   1      13.719999999999997      37.240000000000002      54.879999999999988
   355   1      13.719999999999997      37.240000000000002      58.799999999999997
   356   1      13.719999999999997      39.199999999999989      17.640000000000001
   357   1      11.759999999999998      41.159999999999997      21.559999999999999
   358   1      13.719999999999997      39.199999999999989      21.559999999999999