model_files/CuAu/CuAu_30000/CuAu_533/CuAu_533_fcc_30085_temp.data (written by ASE) 

30085 	 atoms 
2  atom types
0.0                     108  xlo xhi
0.0                     108  ylo yhi
0.0                     108  zlo zhi


Atoms 

     1   1  7.1054273576010019e-15      52.360000000000007      54.230000000000011
     2   1  7.1054273576010019e-15      54.230000000000011      52.360000000000007
     3   1  7.1054273576010019e-15      54.230000000000011      56.100000000000001
     4   1  7.1054273576010019e-15      56.100000000000001      54.230000000000011
     5   1      3.7400000000000087      48.620000000000005      54.230000000000011
     6   1      1.8700000000000117      52.360000000000007      52.360000000000007
     7   1      3.7400000000000087      50.490000000000009      52.360000000000007
     8   1      3.7400000000000087      52.360000000000007      50.490000000000009
     9   1      1.8700000000000117      50.490000000000009      54.230000000000011
    10   1      1.8700000000000117      52.360000000000007      56.100000000000001
    11   1      3.7400000000000087      50.490000000000009      56.100000000000001
    12   1      3.7400000000000087      52.360000000000007      54.230000000000011
    13   1      3.7400000000000087      52.360000000000007      57.970000000000013
    14   1      3.7400000000000087      54.230000000000011      48.620000000000005
    15   1      1.8700000000000117      54.230000000000011      50.490000000000009
    16   1      1.8700000000000117      56.100000000000001      52.360000000000007
    17   1      3.7400000000000087      54.230000000000011      52.360000000000007
    18   1      3.7400000000000087      56.100000000000001      50.490000000000009
    19   1      1.8700000000000117      54.230000000000011      54.230000000000011
    20   1      1.8700000000000117      56.100000000000001      56.100000000000001
    21   1      3.7400000000000087      54.230000000000011      56.100000000000001
    22   1      3.7400000000000087      56.100000000000001      54.230000000000011
    23   1      1.8700000000000117      54.230000000000011      57.970000000000013
    24   1      3.7400000000000087      54.230000000000011      59.840000000000011
    25   1      3.7400000000000087      56.100000000000001      57.970000000000013
    26   1      3.7400000000000087      57.970000000000013      52.360000000000007
    27   1      1.8700000000000117      57.970000000000013      54.230000000000011
    28   1      3.7400000000000087      57.970000000000013      56.100000000000001
    29   1      3.7400000000000087      59.840000000000011      54.230000000000011
    30   1      7.4800000000000102      41.140000000000008      54.230000000000011
    31   1      5.6100000000000065       44.88000000000001      52.360000000000007
    32   1      7.4800000000000102      43.010000000000012      52.360000000000007
    33   1      7.4800000000000102       44.88000000000001      50.490000000000009
    34   1      5.6100000000000065      43.010000000000012      54.230000000000011
    35   1      5.6100000000000065       44.88000000000001      56.100000000000001
    36   1      7.4800000000000102      43.010000000000012      56.100000000000001
    37   1      7.4800000000000102       44.88000000000001      54.230000000000011
    38   1      7.4800000000000102       44.88000000000001      57.970000000000013
    39   1      5.6100000000000065      48.620000000000005      48.620000000000005
    40   1      7.4800000000000102      46.750000000000007      48.620000000000005
    41   1      7.4800000000000102      48.620000000000005      46.750000000000007
    42   1      5.6100000000000065      46.750000000000007      50.490000000000009
    43   1      5.6100000000000065      48.620000000000005      52.360000000000007
    44   1      7.4800000000000102      46.750000000000007      52.360000000000007
    45   1      7.4800000000000102      48.620000000000005      50.490000000000009
    46   1      5.6100000000000065      46.750000000000007      54.230000000000011
    47   1      5.6100000000000065      48.620000000000005      56.100000000000001
    48   1      7.4800000000000102      46.750000000000007      56.100000000000001
    49   1      7.4800000000000102      48.620000000000005      54.230000000000011
    50   1      5.6100000000000065      46.750000000000007      57.970000000000013
    51   1      5.6100000000000065      48.620000000000005      59.840000000000011
    52   1      7.4800000000000102      46.750000000000007      59.840000000000011
    53   1      7.4800000000000102      48.620000000000005      57.970000000000013
    54   1      7.4800000000000102      48.620000000000005      61.710000000000008
    55   1      5.6100000000000065      52.360000000000007       44.88000000000001
    56   1      7.4800000000000102      50.490000000000009       44.88000000000001
    57   1      7.4800000000000102      52.360000000000007      43.010000000000012
    58   1      5.6100000000000065      50.490000000000009      46.750000000000007
    59   1      5.6100000000000065      52.360000000000007      48.620000000000005
    60   1      7.4800000000000102      50.490000000000009      48.620000000000005
    61   1      7.4800000000000102      52.360000000000007      46.750000000000007
    62   1      5.6100000000000065      50.490000000000009      50.490000000000009
    63   1      5.6100000000000065      52.360000000000007      52.360000000000007
    64   1      7.4800000000000102      50.490000000000009      52.360000000000007
    65   1      7.4800000000000102      52.360000000000007      50.490000000000009
    66   1      5.6100000000000065      50.490000000000009      54.230000000000011
    67   1      5.6100000000000065      52.360000000000007      56.100000000000001
    68   1      7.4800000000000102      50.490000000000009      56.100000000000001
    69   1      7.4800000000000102      52.360000000000007      54.230000000000011
    70   1      5.6100000000000065      50.490000000000009      57.970000000000013
    71   1      5.6100000000000065      52.360000000000007      59.840000000000011
    72   1      7.4800000000000102      50.490000000000009      59.840000000000011
    73   1      7.4800000000000102      52.360000000000007      57.970000000000013
    74   1      5.6100000000000065      50.490000000000009      61.710000000000008
    75   1      5.6100000000000065      52.360000000000007      63.580000000000013
    76   1      7.4800000000000102      50.490000000000009      63.580000000000013
    77   1      7.4800000000000102      52.360000000000007      61.710000000000008
    78   1      7.4800000000000102      52.360000000000007      65.450000000000017
    79   1      7.4800000000000102      54.230000000000011      41.140000000000008
    80   1      5.6100000000000065      54.230000000000011      43.010000000000012
    81   1      5.6100000000000065      56.100000000000001       44.88000000000001
    82   1      7.4800000000000102      54.230000000000011       44.88000000000001
    83   1      7.4800000000000102      56.100000000000001      43.010000000000012
    84   1      5.6100000000000065      54.230000000000011      46.750000000000007
    85   1      5.6100000000000065      56.100000000000001      48.620000000000005
    86   1      7.4800000000000102      54.230000000000011      48.620000000000005
    87   1      7.4800000000000102      56.100000000000001      46.750000000000007
    88   1      5.6100000000000065      54.230000000000011      50.490000000000009
    89   1      5.6100000000000065      56.100000000000001      52.360000000000007
    90   1      7.4800000000000102      54.230000000000011      52.360000000000007
    91   1      7.4800000000000102      56.100000000000001      50.490000000000009
    92   1      5.6100000000000065      54.230000000000011      54.230000000000011
    93   1      5.6100000000000065      56.100000000000001      56.100000000000001
    94   1      7.4800000000000102      54.230000000000011      56.100000000000001
    95   1      7.4800000000000102      56.100000000000001      54.230000000000011
    96   1      5.6100000000000065      54.230000000000011      57.970000000000013
    97   1      5.6100000000000065      56.100000000000001      59.840000000000011
    98   1      7.4800000000000102      54.230000000000011      59.840000000000011
    99   1      7.4800000000000102      56.100000000000001      57.970000000000013
   100   1      5.6100000000000065      54.230000000000011      61.710000000000008
   101   1      5.6100000000000065      56.100000000000001      63.580000000000013
   102   1      7.4800000000000102      54.230000000000011      63.580000000000013
   103   1      7.4800000000000102      56.100000000000001      61.710000000000008
   104   1      5.6100000000000065      54.230000000000011      65.450000000000017
   105   1      7.4800000000000102      54.230000000000011      67.320000000000022
   106   1      7.4800000000000102      56.100000000000001      65.450000000000017
   107   1      7.4800000000000102      57.970000000000013       44.88000000000001
   108   1      5.6100000000000065      57.970000000000013      46.750000000000007
   109   1      5.6100000000000065      59.840000000000011      48.620000000000005
   110   1      7.4800000000000102      57.970000000000013      48.620000000000005
   111   1      7.4800000000000102      59.840000000000011      46.750000000000007
   112   1      5.6100000000000065      57.970000000000013      50.490000000000009
   113   1      5.6100000000000065      59.840000000000011      52.360000000000007
   114   1      7.4800000000000102      57.970000000000013      52.360000000000007
   115   1      7.4800000000000102      59.840000000000011      50.490000000000009
   116   1      5.6100000000000065      57.970000000000013      54.230000000000011
   117   1      5.6100000000000065      59.840000000000011      56.100000000000001
   118   1      7.4800000000000102      57.970000000000013      56.100000000000001
   119   1      7.4800000000000102      59.840000000000011      54.230000000000011
   120   1      5.6100000000000065      57.970000000000013      57.970000000000013
   121   1      5.6100000000000065      59.840000000000011      59.840000000000011
   122   1      7.4800000000000102      57.970000000000013      59.840000000000011
   123   1      7.4800000000000102      59.840000000000011      57.970000000000013
   124   1      5.6100000000000065      57.970000000000013      61.710000000000008
   125   1      7.4800000000000102      57.970000000000013      63.580000000000013
   126   1      7.4800000000000102      59.840000000000011      61.710000000000008
   127   1      7.4800000000000102      61.710000000000008      48.620000000000005
   128   1      5.6100000000000065      61.710000000000008      50.490000000000009
   129   1      5.6100000000000065      63.580000000000013      52.360000000000007
   130   1      7.4800000000000102      61.710000000000008      52.360000000000007
   131   1      7.4800000000000102      63.580000000000013      50.490000000000009
   132   1      5.6100000000000065      61.710000000000008      54.230000000000011
   133   1      5.6100000000000065      63.580000000000013      56.100000000000001
   134   1      7.4800000000000102      61.710000000000008      56.100000000000001
   135   1      7.4800000000000102      63.580000000000013      54.230000000000011
   136   1      5.6100000000000065      61.710000000000008      57.970000000000013
   137   1      7.4800000000000102      61.710000000000008      59.840000000000011
   138   1      7.4800000000000102      63.580000000000013      57.970000000000013
   139   1      7.4800000000000102      65.450000000000017      52.360000000000007
   140   1      5.6100000000000065      65.450000000000017      54.230000000000011
   141   1      7.4800000000000102      65.450000000000017      56.100000000000001
   142   1      7.4800000000000102      67.320000000000022      54.230000000000011
   143   1      11.220000000000004      33.660000000000011      54.230000000000011
   144   1      11.220000000000004      35.530000000000015      52.360000000000007
   145   1      11.220000000000004      37.400000000000006      50.490000000000009
   146   1      11.220000000000004      35.530000000000015      56.100000000000001
   147   1      11.220000000000004      37.400000000000006      54.230000000000011
   148   1      11.220000000000004      37.400000000000006      57.970000000000013
   149   1      11.220000000000004      39.270000000000003      48.620000000000005
   150   1      11.220000000000004      41.140000000000008      46.750000000000007
   151   1      9.3500000000000085      41.140000000000008      52.360000000000007
   152   1      11.220000000000004      39.270000000000003      52.360000000000007
   153   1      11.220000000000004      41.140000000000008      50.490000000000009
   154   1      9.3500000000000085      39.270000000000003      54.230000000000011
   155   1      9.3500000000000085      41.140000000000008      56.100000000000001
   156   1      11.220000000000004      39.270000000000003      56.100000000000001
   157   1      11.220000000000004      41.140000000000008      54.230000000000011
   158   1      11.220000000000004      39.270000000000003      59.840000000000011
   159   1      11.220000000000004      41.140000000000008      57.970000000000013
   160   1      11.220000000000004      41.140000000000008      61.710000000000008
   161   1      11.220000000000004      43.010000000000012       44.88000000000001
   162   1      11.220000000000004       44.88000000000001      43.010000000000012
   163   1      9.3500000000000085       44.88000000000001      48.620000000000005
   164   1      11.220000000000004      43.010000000000012      48.620000000000005
   165   1      11.220000000000004       44.88000000000001      46.750000000000007
   166   1      9.3500000000000085      43.010000000000012      50.490000000000009
   167   1      9.3500000000000085       44.88000000000001      52.360000000000007
   168   1      11.220000000000004      43.010000000000012      52.360000000000007
   169   1      11.220000000000004       44.88000000000001      50.490000000000009
   170   1      9.3500000000000085      43.010000000000012      54.230000000000011
   171   1      9.3500000000000085       44.88000000000001      56.100000000000001
   172   1      11.220000000000004      43.010000000000012      56.100000000000001
   173   1      11.220000000000004       44.88000000000001      54.230000000000011
   174   1      9.3500000000000085      43.010000000000012      57.970000000000013
   175   1      9.3500000000000085       44.88000000000001      59.840000000000011
   176   1      11.220000000000004      43.010000000000012      59.840000000000011
   177   1      11.220000000000004       44.88000000000001      57.970000000000013
   178   1      11.220000000000004      43.010000000000012      63.580000000000013
   179   1      11.220000000000004       44.88000000000001      61.710000000000008
   180   1      11.220000000000004       44.88000000000001      65.450000000000017
   181   1      11.220000000000004      46.750000000000007      41.140000000000008
   182   1      11.220000000000004      48.620000000000005      39.270000000000003
   183   1      9.3500000000000085      48.620000000000005       44.88000000000001
   184   1      11.220000000000004      46.750000000000007       44.88000000000001
   185   1      11.220000000000004      48.620000000000005      43.010000000000012
   186   1      9.3500000000000085      46.750000000000007      46.750000000000007
   187   1      9.3500000000000085      48.620000000000005      48.620000000000005
   188   1      11.220000000000004      46.750000000000007      48.620000000000005
   189   1      11.220000000000004      48.620000000000005      46.750000000000007
   190   1      9.3500000000000085      46.750000000000007      50.490000000000009
   191   1      9.3500000000000085      48.620000000000005      52.360000000000007
   192   1      11.220000000000004      46.750000000000007      52.360000000000007
   193   1      11.220000000000004      48.620000000000005      50.490000000000009
   194   1      9.3500000000000085      46.750000000000007      54.230000000000011
   195   1      9.3500000000000085      48.620000000000005      56.100000000000001
   196   1      11.220000000000004      46.750000000000007      56.100000000000001
   197   1      11.220000000000004      48.620000000000005      54.230000000000011
   198   1      9.3500000000000085      46.750000000000007      57.970000000000013
   199   1      9.3500000000000085      48.620000000000005      59.840000000000011
   200   1      11.220000000000004      46.750000000000007      59.840000000000011
   201   1      11.220000000000004      48.620000000000005      57.970000000000013
   202   1      9.3500000000000085      46.750000000000007      61.710000000000008
   203   1      9.3500000000000085      48.620000000000005      63.580000000000013
   204   1      11.220000000000004      46.750000000000007      63.580000000000013
   205   1      11.220000000000004      48.620000000000005      61.710000000000008
   206   1      11.220000000000004      46.750000000000007      67.320000000000022
   207   1      11.220000000000004      48.620000000000005      65.450000000000017
   208   1      11.220000000000004      48.620000000000005      69.189999999999998
   209   1      11.220000000000004      50.490000000000009      37.400000000000006
   210   1      11.220000000000004      52.360000000000007      35.530000000000015
   211   1      9.3500000000000085      52.360000000000007      41.140000000000008
   212   1      11.220000000000004      50.490000000000009      41.140000000000008
   213   1      11.220000000000004      52.360000000000007      39.270000000000003
   214   1      9.3500000000000085      50.490000000000009      43.010000000000012
   215   1      9.3500000000000085      52.360000000000007       44.88000000000001
   216   1      11.220000000000004      50.490000000000009       44.88000000000001
   217   1      11.220000000000004      52.360000000000007      43.010000000000012
   218   1      9.3500000000000085      50.490000000000009      46.750000000000007
   219   1      9.3500000000000085      52.360000000000007      48.620000000000005
   220   1      11.220000000000004      50.490000000000009      48.620000000000005
   221   1      11.220000000000004      52.360000000000007      46.750000000000007
   222   1      9.3500000000000085      50.490000000000009      50.490000000000009
   223   1      9.3500000000000085      52.360000000000007      52.360000000000007
   224   1      11.220000000000004      50.490000000000009      52.360000000000007
   225   1      11.220000000000004      52.360000000000007      50.490000000000009
   226   1      9.3500000000000085      50.490000000000009      54.230000000000011
   227   1      9.3500000000000085      52.360000000000007      56.100000000000001
   228   1      11.220000000000004      50.490000000000009      56.100000000000001
   229   1      11.220000000000004      52.360000000000007      54.230000000000011
   230   1      9.3500000000000085      50.490000000000009      57.970000000000013
   231   1      9.3500000000000085      52.360000000000007      59.840000000000011
   232   1      11.220000000000004      50.490000000000009      59.840000000000011
   233   1      11.220000000000004      52.360000000000007      57.970000000000013
   234   1      9.3500000000000085      50.490000000000009      61.710000000000008
   235   1      9.3500000000000085      52.360000000000007      63.580000000000013
   236   1      11.220000000000004      50.490000000000009      63.580000000000013
   237   1      11.220000000000004      52.360000000000007      61.710000000000008
   238   1      9.3500000000000085      50.490000000000009      65.450000000000017
   239   1      9.3500000000000085      52.360000000000007      67.320000000000022
   240   1      11.220000000000004      50.490000000000009      67.320000000000022
   241   1      11.220000000000004      52.360000000000007      65.450000000000017
   242   1      11.220000000000004      50.490000000000009      71.060000000000016
   243   1      11.220000000000004      52.360000000000007      69.189999999999998
   244   1      11.220000000000004      52.360000000000007      72.930000000000021
   245   1      11.220000000000004      54.230000000000011      33.660000000000011
   246   1      11.220000000000004      54.230000000000011      37.400000000000006
   247   1      11.220000000000004      56.100000000000001      35.530000000000015
   248   1      9.3500000000000085      54.230000000000011      39.270000000000003
   249   1      9.3500000000000085      56.100000000000001      41.140000000000008
   250   1      11.220000000000004      54.230000000000011      41.140000000000008
   251   1      11.220000000000004      56.100000000000001      39.270000000000003
   252   1      9.3500000000000085      54.230000000000011      43.010000000000012
   253   1      9.3500000000000085      56.100000000000001       44.88000000000001
   254   1      11.220000000000004      54.230000000000011       44.88000000000001
   255   1      11.220000000000004      56.100000000000001      43.010000000000012
   256   1      9.3500000000000085      54.230000000000011      46.750000000000007
   257   1      9.3500000000000085      56.100000000000001      48.620000000000005
   258   1      11.220000000000004      54.230000000000011      48.620000000000005
   259   1      11.220000000000004      56.100000000000001      46.750000000000007
   260   1      9.3500000000000085      54.230000000000011      50.490000000000009
   261   1      9.3500000000000085      56.100000000000001      52.360000000000007
   262   1      11.220000000000004      54.230000000000011      52.360000000000007
   263   1      11.220000000000004      56.100000000000001      50.490000000000009
   264   1      9.3500000000000085      54.230000000000011      54.230000000000011
   265   1      9.3500000000000085      56.100000000000001      56.100000000000001
   266   1      11.220000000000004      54.230000000000011      56.100000000000001
   267   1      11.220000000000004      56.100000000000001      54.230000000000011
   268   1      9.3500000000000085      54.230000000000011      57.970000000000013
   269   1      9.3500000000000085      56.100000000000001      59.840000000000011
   270   1      11.220000000000004      54.230000000000011      59.840000000000011
   271   1      11.220000000000004      56.100000000000001      57.970000000000013
   272   1      9.3500000000000085      54.230000000000011      61.710000000000008
   273   1      9.3500000000000085      56.100000000000001      63.580000000000013
   274   1      11.220000000000004      54.230000000000011      63.580000000000013
   275   1      11.220000000000004      56.100000000000001      61.710000000000008
   276   1      9.3500000000000085      54.230000000000011      65.450000000000017
   277   1      9.3500000000000085      56.100000000000001      67.320000000000022
   278   1      11.220000000000004      54.230000000000011      67.320000000000022
   279   1      11.220000000000004      56.100000000000001      65.450000000000017
   280   1      9.3500000000000085      54.230000000000011      69.189999999999998
   281   1      11.220000000000004      54.230000000000011      71.060000000000016
   282   1      11.220000000000004      56.100000000000001      69.189999999999998
   283   1      11.220000000000004      54.230000000000011      74.800000000000011
   284   1      11.220000000000004      56.100000000000001      72.930000000000021
   285   1      11.220000000000004      57.970000000000013      37.400000000000006
   286   1      11.220000000000004      57.970000000000013      41.140000000000008
   287   1      11.220000000000004      59.840000000000011      39.270000000000003
   288   1      9.3500000000000085      57.970000000000013      43.010000000000012
   289   1      9.3500000000000085      59.840000000000011       44.88000000000001
   290   1      11.220000000000004      57.970000000000013       44.88000000000001
   291   1      11.220000000000004      59.840000000000011      43.010000000000012
   292   1      9.3500000000000085      57.970000000000013      46.750000000000007
   293   1      9.3500000000000085      59.840000000000011      48.620000000000005
   294   1      11.220000000000004      57.970000000000013      48.620000000000005
   295   1      11.220000000000004      59.840000000000011      46.750000000000007
   296   1      9.3500000000000085      57.970000000000013      50.490000000000009
   297   1      9.3500000000000085      59.840000000000011      52.360000000000007
   298   1      11.220000000000004      57.970000000000013      52.360000000000007
   299   1      11.220000000000004      59.840000000000011      50.490000000000009
   300   1      9.3500000000000085      57.970000000000013      54.230000000000011
   301   1      9.3500000000000085      59.840000000000011      56.100000000000001
   302   1      11.220000000000004      57.970000000000013      56.100000000000001
   303   1      11.220000000000004      59.840000000000011      54.230000000000011
   304   1      9.3500000000000085      57.970000000000013      57.970000000000013
   305   1      9.3500000000000085      59.840000000000011      59.840000000000011
   306   1      11.220000000000004      57.970000000000013      59.840000000000011
   307   1      11.220000000000004      59.840000000000011      57.970000000000013
   308   1      9.3500000000000085      57.970000000000013      61.710000000000008
   309   1      9.3500000000000085      59.840000000000011      63.580000000000013
   310   1      11.220000000000004      57.970000000000013      63.580000000000013
   311   1      11.220000000000004      59.840000000000011      61.710000000000008
   312   1      9.3500000000000085      57.970000000000013      65.450000000000017
   313   1      11.220000000000004      57.970000000000013      67.320000000000022
   314   1      11.220000000000004      59.840000000000011      65.450000000000017
   315   1      11.220000000000004      57.970000000000013      71.060000000000016
   316   1      11.220000000000004      59.840000000000011      69.189999999999998
   317   1      11.220000000000004      61.710000000000008      41.140000000000008
   318   1      11.220000000000004      61.710000000000008       44.88000000000001
   319   1      11.220000000000004      63.580000000000013      43.010000000000012
   320   1      9.3500000000000085      61.710000000000008      46.750000000000007
   321   1      9.3500000000000085      63.580000000000013      48.620000000000005
   322   1      11.220000000000004      61.710000000000008      48.620000000000005
   323   1      11.220000000000004      63.580000000000013      46.750000000000007
   324   1      9.3500000000000085      61.710000000000008      50.490000000000009
   325   1      9.3500000000000085      63.580000000000013      52.360000000000007
   326   1      11.220000000000004      61.710000000000008      52.360000000000007
   327   1      11.220000000000004      63.580000000000013      50.490000000000009
   328   1      9.3500000000000085      61.710000000000008      54.230000000000011
   329   1      9.3500000000000085      63.580000000000013      56.100000000000001
   330   1      11.220000000000004      61.710000000000008      56.100000000000001
   331   1      11.220000000000004      63.580000000000013      54.230000000000011
   332   1      9.3500000000000085      61.710000000000008      57.970000000000013
   333   1      9.3500000000000085      63.580000000000013      59.840000000000011
   334   1      11.220000000000004      61.710000000000008      59.840000000000011
   335   1      11.220000000000004      63.580000000000013      57.970000000000013
   336   1      9.3500000000000085      61.710000000000008      61.710000000000008
   337   1      11.220000000000004      61.710000000000008      63.580000000000013
   338   1      11.220000000000004      63.580000000000013      61.710000000000008
   339   1      11.220000000000004      61.710000000000008      67.320000000000022
   340   1      11.220000000000004      63.580000000000013      65.450000000000017
   341   1      11.220000000000004      65.450000000000017       44.88000000000001
   342   1      11.220000000000004      65.450000000000017      48.620000000000005
   343   1      11.220000000000004      67.320000000000022      46.750000000000007
   344   1      9.3500000000000085      65.450000000000017      50.490000000000009
   345   1      9.3500000000000085      67.320000000000022      52.360000000000007
   346   1      11.220000000000004      65.450000000000017      52.360000000000007
   347   1      11.220000000000004      67.320000000000022      50.490000000000009
   348   1      9.3500000000000085      65.450000000000017      54.230000000000011
   349   1      9.3500000000000085      67.320000000000022      56.100000000000001
   350   1      11.220000000000004      65.450000000000017      56.100000000000001
   351   1      11.220000000000004      67.320000000000022      54.230000000000011
   352   1      9.3500000000000085      65.450000000000017      57.970000000000013
   353   1      11.220000000000004      65.450000000000017      59.840000000000011
   354   1      11.220000000000004      67.320000000000022      57.970000000000013
   355   1      11.220000000000004      65.450000000000017      63.580000000000013
   356   1      11.220000000000004      67.320000000000022      61.710000000000008
   357   1      11.220000000000004      69.189999999999998      48.620000000000005
   358   1      11.220000000000004      69.189999999999998      52.360000000000007