model_files/PtAu/PtAu_30000/PtAu_520/PtAu_520_fcc_30029_temp.data (written by ASE) 

30029 	 atoms 
2  atom types
0.0                      99  xlo xhi
0.0                      99  ylo yhi
0.0                      99  zlo zhi


Atoms 

     1   1      2.0214999999999965      42.451500000000003      44.472999999999999
     2   1      2.0214999999999965      42.451500000000003      48.516000000000005
     3   1      2.0214999999999965      42.451500000000003      52.558999999999997
     4   1      2.0214999999999965      44.472999999999999      42.451500000000003
     5   1      98.999999999999986      46.494500000000002      46.494500000000002
     6   1      2.0214999999999965      44.472999999999999      46.494500000000002
     7   1      2.0214999999999965      46.494500000000002      44.472999999999999
     8   1      98.999999999999986      46.494500000000002      50.537500000000009
     9   1      2.0214999999999965      44.472999999999999      50.537500000000009
    10   1      2.0214999999999965      46.494500000000002      48.516000000000005
    11   1      2.0214999999999965      44.472999999999999      54.580500000000001
    12   1      2.0214999999999965      46.494500000000002      52.558999999999997
    13   1      2.0214999999999965      48.516000000000005      42.451500000000003
    14   1      98.999999999999986      50.537500000000009      46.494500000000002
    15   1      2.0214999999999965      48.516000000000005      46.494500000000002
    16   1      2.0214999999999965      50.537500000000009      44.472999999999999
    17   1      98.999999999999986      48.516000000000005      48.516000000000005
    18   1      98.999999999999986      50.537500000000009      50.537500000000009
    19   1      2.0214999999999965      48.516000000000005      50.537500000000009
    20   1      2.0214999999999965      50.537500000000009      48.516000000000005
    21   1      2.0214999999999965      48.516000000000005      54.580500000000001
    22   1      2.0214999999999965      50.537500000000009      52.558999999999997
    23   1      2.0214999999999965      52.558999999999997      42.451500000000003
    24   1      2.0214999999999965      52.558999999999997      46.494500000000002
    25   1      2.0214999999999965      54.580500000000001      44.472999999999999
    26   1      2.0214999999999965      52.558999999999997      50.537500000000009
    27   1      2.0214999999999965      54.580500000000001      48.516000000000005
    28   1      2.0214999999999965      52.558999999999997      54.580500000000001
    29   1      2.0214999999999965      54.580500000000001      52.558999999999997
    30   1      6.0644999999999962      32.343999999999994      34.365499999999997
    31   1      6.0644999999999962      34.365499999999997      32.343999999999994
    32   1      6.0644999999999962      32.343999999999994      38.408499999999997
    33   1      6.0644999999999962      34.365499999999997      36.386999999999993
    34   1      6.0644999999999962      32.343999999999994      42.451500000000003
    35   1      6.0644999999999962      34.365499999999997                   40.43
    36   1      6.0644999999999962      32.343999999999994      46.494500000000002
    37   1      6.0644999999999962      34.365499999999997      44.472999999999999
    38   1      6.0644999999999962      32.343999999999994      50.537500000000009
    39   1      6.0644999999999962      34.365499999999997      48.516000000000005
    40   1      6.0644999999999962      32.343999999999994      54.580500000000001
    41   1      6.0644999999999962      34.365499999999997      52.558999999999997
    42   1      6.0644999999999962      32.343999999999994      58.623500000000007
    43   1      6.0644999999999962      34.365499999999997      56.602000000000004
    44   1      6.0644999999999962      32.343999999999994      62.666499999999999
    45   1      6.0644999999999962      34.365499999999997      60.644999999999996
    46   1      6.0644999999999962      34.365499999999997      64.688000000000002
    47   1      6.0644999999999962      36.386999999999993      34.365499999999997
    48   1      6.0644999999999962      38.408499999999997      32.343999999999994
    49   1       4.042999999999993      36.386999999999993      36.386999999999993
    50   1       4.042999999999993      38.408499999999997      38.408499999999997
    51   1      6.0644999999999962      36.386999999999993      38.408499999999997
    52   1      6.0644999999999962      38.408499999999997      36.386999999999993
    53   1       4.042999999999993      36.386999999999993                   40.43
    54   1       4.042999999999993      38.408499999999997      42.451500000000003
    55   1      6.0644999999999962      36.386999999999993      42.451500000000003
    56   1      6.0644999999999962      38.408499999999997                   40.43
    57   1       4.042999999999993      36.386999999999993      44.472999999999999
    58   1       4.042999999999993      38.408499999999997      46.494500000000002
    59   1      6.0644999999999962      36.386999999999993      46.494500000000002
    60   1      6.0644999999999962      38.408499999999997      44.472999999999999
    61   1       4.042999999999993      36.386999999999993      48.516000000000005
    62   1       4.042999999999993      38.408499999999997      50.537500000000009
    63   1      6.0644999999999962      36.386999999999993      50.537500000000009
    64   1      6.0644999999999962      38.408499999999997      48.516000000000005
    65   1       4.042999999999993      36.386999999999993      52.558999999999997
    66   1       4.042999999999993      38.408499999999997      54.580500000000001
    67   1      6.0644999999999962      36.386999999999993      54.580500000000001
    68   1      6.0644999999999962      38.408499999999997      52.558999999999997
    69   1       4.042999999999993      36.386999999999993      56.602000000000004
    70   1       4.042999999999993      38.408499999999997      58.623500000000007
    71   1      6.0644999999999962      36.386999999999993      58.623500000000007
    72   1      6.0644999999999962      38.408499999999997      56.602000000000004
    73   1       4.042999999999993      36.386999999999993      60.644999999999996
    74   1      6.0644999999999962      36.386999999999993      62.666499999999999
    75   1      6.0644999999999962      38.408499999999997      60.644999999999996
    76   1      6.0644999999999962      38.408499999999997      64.688000000000002
    77   1      6.0644999999999962                   40.43      34.365499999999997
    78   1      6.0644999999999962      42.451500000000003      32.343999999999994
    79   1       4.042999999999993                   40.43      36.386999999999993
    80   1       4.042999999999993      42.451500000000003      38.408499999999997
    81   1      6.0644999999999962                   40.43      38.408499999999997
    82   1      6.0644999999999962      42.451500000000003      36.386999999999993
    83   1       4.042999999999993                   40.43                   40.43
    84   1       4.042999999999993      42.451500000000003      42.451500000000003
    85   1      6.0644999999999962                   40.43      42.451500000000003
    86   1      6.0644999999999962      42.451500000000003                   40.43
    87   1       4.042999999999993                   40.43      44.472999999999999
    88   1       4.042999999999993      42.451500000000003      46.494500000000002
    89   1      6.0644999999999962                   40.43      46.494500000000002
    90   1      6.0644999999999962      42.451500000000003      44.472999999999999
    91   1       4.042999999999993                   40.43      48.516000000000005
    92   1       4.042999999999993      42.451500000000003      50.537500000000009
    93   1      6.0644999999999962                   40.43      50.537500000000009
    94   1      6.0644999999999962      42.451500000000003      48.516000000000005
    95   1       4.042999999999993                   40.43      52.558999999999997
    96   1       4.042999999999993      42.451500000000003      54.580500000000001
    97   1      6.0644999999999962                   40.43      54.580500000000001
    98   1      6.0644999999999962      42.451500000000003      52.558999999999997
    99   1       4.042999999999993                   40.43      56.602000000000004
   100   1       4.042999999999993      42.451500000000003      58.623500000000007
   101   1      6.0644999999999962                   40.43      58.623500000000007
   102   1      6.0644999999999962      42.451500000000003      56.602000000000004
   103   1       4.042999999999993                   40.43      60.644999999999996
   104   1      6.0644999999999962                   40.43      62.666499999999999
   105   1      6.0644999999999962      42.451500000000003      60.644999999999996
   106   1      6.0644999999999962      42.451500000000003      64.688000000000002
   107   1      6.0644999999999962      44.472999999999999      34.365499999999997
   108   1      6.0644999999999962      46.494500000000002      32.343999999999994
   109   1       4.042999999999993      44.472999999999999      36.386999999999993
   110   1       4.042999999999993      46.494500000000002      38.408499999999997
   111   1      6.0644999999999962      44.472999999999999      38.408499999999997
   112   1      6.0644999999999962      46.494500000000002      36.386999999999993
   113   1       4.042999999999993      44.472999999999999                   40.43
   114   1       4.042999999999993      46.494500000000002      42.451500000000003
   115   1      6.0644999999999962      44.472999999999999      42.451500000000003
   116   1      6.0644999999999962      46.494500000000002                   40.43
   117   1       4.042999999999993      44.472999999999999      44.472999999999999
   118   1       4.042999999999993      46.494500000000002      46.494500000000002
   119   1      6.0644999999999962      44.472999999999999      46.494500000000002
   120   1      6.0644999999999962      46.494500000000002      44.472999999999999
   121   1       4.042999999999993      44.472999999999999      48.516000000000005
   122   1       4.042999999999993      46.494500000000002      50.537500000000009
   123   1      6.0644999999999962      44.472999999999999      50.537500000000009
   124   1      6.0644999999999962      46.494500000000002      48.516000000000005
   125   1       4.042999999999993      44.472999999999999      52.558999999999997
   126   1       4.042999999999993      46.494500000000002      54.580500000000001
   127   1      6.0644999999999962      44.472999999999999      54.580500000000001
   128   1      6.0644999999999962      46.494500000000002      52.558999999999997
   129   1       4.042999999999993      44.472999999999999      56.602000000000004
   130   1       4.042999999999993      46.494500000000002      58.623500000000007
   131   1      6.0644999999999962      44.472999999999999      58.623500000000007
   132   1      6.0644999999999962      46.494500000000002      56.602000000000004
   133   1       4.042999999999993      44.472999999999999      60.644999999999996
   134   1      6.0644999999999962      44.472999999999999      62.666499999999999
   135   1      6.0644999999999962      46.494500000000002      60.644999999999996
   136   1      6.0644999999999962      46.494500000000002      64.688000000000002
   137   1      6.0644999999999962      48.516000000000005      34.365499999999997
   138   1      6.0644999999999962      50.537500000000009      32.343999999999994
   139   1       4.042999999999993      48.516000000000005      36.386999999999993
   140   1       4.042999999999993      50.537500000000009      38.408499999999997
   141   1      6.0644999999999962      48.516000000000005      38.408499999999997
   142   1      6.0644999999999962      50.537500000000009      36.386999999999993
   143   1       4.042999999999993      48.516000000000005                   40.43
   144   1       4.042999999999993      50.537500000000009      42.451500000000003
   145   1      6.0644999999999962      48.516000000000005      42.451500000000003
   146   1      6.0644999999999962      50.537500000000009                   40.43
   147   1       4.042999999999993      48.516000000000005      44.472999999999999
   148   1       4.042999999999993      50.537500000000009      46.494500000000002
   149   1      6.0644999999999962      48.516000000000005      46.494500000000002
   150   1      6.0644999999999962      50.537500000000009      44.472999999999999
   151   1       4.042999999999993      48.516000000000005      48.516000000000005
   152   1       4.042999999999993      50.537500000000009      50.537500000000009
   153   1      6.0644999999999962      48.516000000000005      50.537500000000009
   154   1      6.0644999999999962      50.537500000000009      48.516000000000005
   155   1       4.042999999999993      48.516000000000005      52.558999999999997
   156   1       4.042999999999993      50.537500000000009      54.580500000000001
   157   1      6.0644999999999962      48.516000000000005      54.580500000000001
   158   1      6.0644999999999962      50.537500000000009      52.558999999999997
   159   1       4.042999999999993      48.516000000000005      56.602000000000004
   160   1       4.042999999999993      50.537500000000009      58.623500000000007
   161   1      6.0644999999999962      48.516000000000005      58.623500000000007
   162   1      6.0644999999999962      50.537500000000009      56.602000000000004
   163   1       4.042999999999993      48.516000000000005      60.644999999999996
   164   1      6.0644999999999962      48.516000000000005      62.666499999999999
   165   1      6.0644999999999962      50.537500000000009      60.644999999999996
   166   1      6.0644999999999962      50.537500000000009      64.688000000000002
   167   1      6.0644999999999962      52.558999999999997      34.365499999999997
   168   1      6.0644999999999962      54.580500000000001      32.343999999999994
   169   1       4.042999999999993      52.558999999999997      36.386999999999993
   170   1       4.042999999999993      54.580500000000001      38.408499999999997
   171   1      6.0644999999999962      52.558999999999997      38.408499999999997
   172   1      6.0644999999999962      54.580500000000001      36.386999999999993
   173   1       4.042999999999993      52.558999999999997                   40.43
   174   1       4.042999999999993      54.580500000000001      42.451500000000003
   175   1      6.0644999999999962      52.558999999999997      42.451500000000003
   176   1      6.0644999999999962      54.580500000000001                   40.43
   177   1       4.042999999999993      52.558999999999997      44.472999999999999
   178   1       4.042999999999993      54.580500000000001      46.494500000000002
   179   1      6.0644999999999962      52.558999999999997      46.494500000000002
   180   1      6.0644999999999962      54.580500000000001      44.472999999999999
   181   1       4.042999999999993      52.558999999999997      48.516000000000005
   182   1       4.042999999999993      54.580500000000001      50.537500000000009
   183   1      6.0644999999999962      52.558999999999997      50.537500000000009
   184   1      6.0644999999999962      54.580500000000001      48.516000000000005
   185   1       4.042999999999993      52.558999999999997      52.558999999999997
   186   1       4.042999999999993      54.580500000000001      54.580500000000001
   187   1      6.0644999999999962      52.558999999999997      54.580500000000001
   188   1      6.0644999999999962      54.580500000000001      52.558999999999997
   189   1       4.042999999999993      52.558999999999997      56.602000000000004
   190   1       4.042999999999993      54.580500000000001      58.623500000000007
   191   1      6.0644999999999962      52.558999999999997      58.623500000000007
   192   1      6.0644999999999962      54.580500000000001      56.602000000000004
   193   1       4.042999999999993      52.558999999999997      60.644999999999996
   194   1      6.0644999999999962      52.558999999999997      62.666499999999999
   195   1      6.0644999999999962      54.580500000000001      60.644999999999996
   196   1      6.0644999999999962      54.580500000000001      64.688000000000002
   197   1      6.0644999999999962      56.602000000000004      34.365499999999997
   198   1      6.0644999999999962      58.623500000000007      32.343999999999994
   199   1       4.042999999999993      56.602000000000004      36.386999999999993
   200   1       4.042999999999993      58.623500000000007      38.408499999999997
   201   1      6.0644999999999962      56.602000000000004      38.408499999999997
   202   1      6.0644999999999962      58.623500000000007      36.386999999999993
   203   1       4.042999999999993      56.602000000000004                   40.43
   204   1       4.042999999999993      58.623500000000007      42.451500000000003
   205   1      6.0644999999999962      56.602000000000004      42.451500000000003
   206   1      6.0644999999999962      58.623500000000007                   40.43
   207   1       4.042999999999993      56.602000000000004      44.472999999999999
   208   1       4.042999999999993      58.623500000000007      46.494500000000002
   209   1      6.0644999999999962      56.602000000000004      46.494500000000002
   210   1      6.0644999999999962      58.623500000000007      44.472999999999999
   211   1       4.042999999999993      56.602000000000004      48.516000000000005
   212   1       4.042999999999993      58.623500000000007      50.537500000000009
   213   1      6.0644999999999962      56.602000000000004      50.537500000000009
   214   1      6.0644999999999962      58.623500000000007      48.516000000000005
   215   1       4.042999999999993      56.602000000000004      52.558999999999997
   216   1       4.042999999999993      58.623500000000007      54.580500000000001
   217   1      6.0644999999999962      56.602000000000004      54.580500000000001
   218   1      6.0644999999999962      58.623500000000007      52.558999999999997
   219   1       4.042999999999993      56.602000000000004      56.602000000000004
   220   1       4.042999999999993      58.623500000000007      58.623500000000007
   221   1      6.0644999999999962      56.602000000000004      58.623500000000007
   222   1      6.0644999999999962      58.623500000000007      56.602000000000004
   223   1       4.042999999999993      56.602000000000004      60.644999999999996
   224   1      6.0644999999999962      56.602000000000004      62.666499999999999
   225   1      6.0644999999999962      58.623500000000007      60.644999999999996
   226   1      6.0644999999999962      58.623500000000007      64.688000000000002
   227   1      6.0644999999999962      60.644999999999996      34.365499999999997
   228   1      6.0644999999999962      62.666499999999999      32.343999999999994
   229   1       4.042999999999993      60.644999999999996      36.386999999999993
   230   1      6.0644999999999962      60.644999999999996      38.408499999999997
   231   1      6.0644999999999962      62.666499999999999      36.386999999999993
   232   1       4.042999999999993      60.644999999999996                   40.43
   233   1      6.0644999999999962      60.644999999999996      42.451500000000003
   234   1      6.0644999999999962      62.666499999999999                   40.43
   235   1       4.042999999999993      60.644999999999996      44.472999999999999
   236   1      6.0644999999999962      60.644999999999996      46.494500000000002
   237   1      6.0644999999999962      62.666499999999999      44.472999999999999
   238   1       4.042999999999993      60.644999999999996      48.516000000000005
   239   1      6.0644999999999962      60.644999999999996      50.537500000000009
   240   1      6.0644999999999962      62.666499999999999      48.516000000000005
   241   1       4.042999999999993      60.644999999999996      52.558999999999997
   242   1      6.0644999999999962      60.644999999999996      54.580500000000001
   243   1      6.0644999999999962      62.666499999999999      52.558999999999997
   244   1       4.042999999999993      60.644999999999996      56.602000000000004
   245   1      6.0644999999999962      60.644999999999996      58.623500000000007
   246   1      6.0644999999999962      62.666499999999999      56.602000000000004
   247   1       4.042999999999993      60.644999999999996      60.644999999999996
   248   1      6.0644999999999962      60.644999999999996      62.666499999999999
   249   1      6.0644999999999962      62.666499999999999      60.644999999999996
   250   1      6.0644999999999962      62.666499999999999      64.688000000000002
   251   1      6.0644999999999962      64.688000000000002      34.365499999999997
   252   1      6.0644999999999962      64.688000000000002      38.408499999999997
   253   1      6.0644999999999962      64.688000000000002      42.451500000000003
   254   1      6.0644999999999962      64.688000000000002      46.494500000000002
   255   1      6.0644999999999962      64.688000000000002      50.537500000000009
   256   1      6.0644999999999962      64.688000000000002      54.580500000000001
   257   1      6.0644999999999962      64.688000000000002      58.623500000000007
   258   1      6.0644999999999962      64.688000000000002      62.666499999999999
   259   1      10.107499999999995      22.236499999999999      24.257999999999999
   260   1      10.107499999999995      22.236499999999999      28.300999999999995
   261   1      10.107499999999995      22.236499999999999      32.343999999999994
   262   1      10.107499999999995      22.236499999999999      36.386999999999993
   263   1      10.107499999999995      22.236499999999999                   40.43
   264   1      10.107499999999995      22.236499999999999      44.472999999999999
   265   1      10.107499999999995      22.236499999999999      48.516000000000005
   266   1      10.107499999999995      22.236499999999999      52.558999999999997
   267   1      10.107499999999995      22.236499999999999      56.602000000000004
   268   1      10.107499999999995      22.236499999999999      60.644999999999996
   269   1      10.107499999999995      22.236499999999999      64.688000000000002
   270   1      10.107499999999995      22.236499999999999      68.730999999999995
   271   1      10.107499999999995      22.236499999999999      72.774000000000001
   272   1      10.107499999999995      24.257999999999999      22.236499999999999
   273   1      8.0859999999999914      26.279499999999999      26.279499999999999
   274   1      10.107499999999995      24.257999999999999      26.279499999999999
   275   1      10.107499999999995      26.279499999999999      24.257999999999999
   276   1      8.0859999999999914      26.279499999999999      30.322499999999998
   277   1      10.107499999999995      24.257999999999999      30.322499999999998
   278   1      10.107499999999995      26.279499999999999      28.300999999999995
   279   1      8.0859999999999914      26.279499999999999      34.365499999999997
   280   1      10.107499999999995      24.257999999999999      34.365499999999997
   281   1      10.107499999999995      26.279499999999999      32.343999999999994
   282   1      8.0859999999999914      26.279499999999999      38.408499999999997
   283   1      10.107499999999995      24.257999999999999      38.408499999999997
   284   1      10.107499999999995      26.279499999999999      36.386999999999993
   285   1      8.0859999999999914      26.279499999999999      42.451500000000003
   286   1      10.107499999999995      24.257999999999999      42.451500000000003
   287   1      10.107499999999995      26.279499999999999                   40.43
   288   1      8.0859999999999914      26.279499999999999      46.494500000000002
   289   1      10.107499999999995      24.257999999999999      46.494500000000002
   290   1      10.107499999999995      26.279499999999999      44.472999999999999
   291   1      8.0859999999999914      26.279499999999999      50.537500000000009
   292   1      10.107499999999995      24.257999999999999      50.537500000000009
   293   1      10.107499999999995      26.279499999999999      48.516000000000005
   294   1      8.0859999999999914      26.279499999999999      54.580500000000001
   295   1      10.107499999999995      24.257999999999999      54.580500000000001
   296   1      10.107499999999995      26.279499999999999      52.558999999999997
   297   1      8.0859999999999914      26.279499999999999      58.623500000000007
   298   1      10.107499999999995      24.257999999999999      58.623500000000007
   299   1      10.107499999999995      26.279499999999999      56.602000000000004
   300   1      8.0859999999999914      26.279499999999999      62.666499999999999
   301   1      10.107499999999995      24.257999999999999      62.666499999999999
   302   1      10.107499999999995      26.279499999999999      60.644999999999996
   303   1      8.0859999999999914      26.279499999999999      66.709500000000006
   304   1      10.107499999999995      24.257999999999999      66.709500000000006
   305   1      10.107499999999995      26.279499999999999      64.688000000000002
   306   1      8.0859999999999914      26.279499999999999      70.752499999999998
   307   1      10.107499999999995      24.257999999999999      70.752499999999998
   308   1      10.107499999999995      26.279499999999999      68.730999999999995
   309   1      10.107499999999995      24.257999999999999      74.795500000000004
   310   1      10.107499999999995      26.279499999999999      72.774000000000001
   311   1      10.107499999999995      28.300999999999995      22.236499999999999
   312   1      8.0859999999999914      30.322499999999998      26.279499999999999
   313   1      10.107499999999995      28.300999999999995      26.279499999999999
   314   1      10.107499999999995      30.322499999999998      24.257999999999999
   315   1      8.0859999999999914      28.300999999999995      28.300999999999995
   316   1      8.0859999999999914      30.322499999999998      30.322499999999998
   317   1      10.107499999999995      28.300999999999995      30.322499999999998
   318   1      10.107499999999995      30.322499999999998      28.300999999999995
   319   1      8.0859999999999914      28.300999999999995      32.343999999999994
   320   1      8.0859999999999914      30.322499999999998      34.365499999999997
   321   1      10.107499999999995      28.300999999999995      34.365499999999997
   322   1      10.107499999999995      30.322499999999998      32.343999999999994
   323   1      8.0859999999999914      28.300999999999995      36.386999999999993
   324   1      8.0859999999999914      30.322499999999998      38.408499999999997
   325   1      10.107499999999995      28.300999999999995      38.408499999999997
   326   1      10.107499999999995      30.322499999999998      36.386999999999993
   327   1      8.0859999999999914      28.300999999999995                   40.43
   328   1      8.0859999999999914      30.322499999999998      42.451500000000003
   329   1      10.107499999999995      28.300999999999995      42.451500000000003
   330   1      10.107499999999995      30.322499999999998                   40.43
   331   1      8.0859999999999914      28.300999999999995      44.472999999999999
   332   1      8.0859999999999914      30.322499999999998      46.494500000000002
   333   1      10.107499999999995      28.300999999999995      46.494500000000002
   334   1      10.107499999999995      30.322499999999998      44.472999999999999
   335   1      8.0859999999999914      28.300999999999995      48.516000000000005
   336   1      8.0859999999999914      30.322499999999998      50.537500000000009
   337   1      10.107499999999995      28.300999999999995      50.537500000000009
   338   1      10.107499999999995      30.322499999999998      48.516000000000005
   339   1      8.0859999999999914      28.300999999999995      52.558999999999997
   340   1      8.0859999999999914      30.322499999999998      54.580500000000001
   341   1      10.107499999999995      28.300999999999995      54.580500000000001
   342   1      10.107499999999995      30.322499999999998      52.558999999999997
   343   1      8.0859999999999914      28.300999999999995      56.602000000000004
   344   1      8.0859999999999914      30.322499999999998      58.623500000000007
   345   1      10.107499999999995      28.300999999999995      58.623500000000007
   346   1      10.107499999999995      30.322499999999998      56.602000000000004
   347   1      8.0859999999999914      28.300999999999995      60.644999999999996
   348   1      8.0859999999999914      30.322499999999998      62.666499999999999
   349   1      10.107499999999995      28.300999999999995      62.666499999999999
   350   1      10.107499999999995      30.322499999999998      60.644999999999996
   351   1      8.0859999999999914      28.300999999999995      64.688000000000002
   352   1      8.0859999999999914      30.322499999999998      66.709500000000006
   353   1      10.107499999999995      28.300999999999995      66.709500000000006
   354   1      10.107499999999995      30.322499999999998      64.688000000000002
   355   1      8.0859999999999914      28.300999999999995      68.730999999999995
   356   1      8.0859999999999914      30.322499999999998      70.752499999999998
   357   1      10.107499999999995      28.300999999999995      70.752499999999998
   358   1      10.107499999999995      30.322499999999998      68.730999999999995