model_files/Ag/Ag_30000/Ag_543/data.Ag_543_fcc_30079 (written by ASE) 

30079 	 atoms 
1  atom types
0.0                     126  xlo xhi
0.0                     126  ylo yhi
0.0                     126  zlo zhi


Atoms 

     1   1      125.99999999999999       61.34999999999998      63.394999999999982
     2   1      125.99999999999999      63.394999999999982       61.34999999999998
     3   1      125.99999999999999      63.394999999999982      65.439999999999984
     4   1      125.99999999999999      65.439999999999984      63.394999999999982
     5   1      4.0899999999999812      57.259999999999984      63.394999999999982
     6   1      2.0449999999999875       61.34999999999998       61.34999999999998
     7   1      4.0899999999999812      59.304999999999971       61.34999999999998
     8   1      4.0899999999999812       61.34999999999998      59.304999999999971
     9   1      2.0449999999999875      59.304999999999971      63.394999999999982
    10   1      2.0449999999999875       61.34999999999998      65.439999999999984
    11   1      4.0899999999999812      59.304999999999971      65.439999999999984
    12   1      4.0899999999999812       61.34999999999998      63.394999999999982
    13   1      4.0899999999999812       61.34999999999998      67.484999999999971
    14   1      4.0899999999999812      63.394999999999982      57.259999999999984
    15   1      2.0449999999999875      63.394999999999982      59.304999999999971
    16   1      2.0449999999999875      65.439999999999984       61.34999999999998
    17   1      4.0899999999999812      63.394999999999982       61.34999999999998
    18   1      4.0899999999999812      65.439999999999984      59.304999999999971
    19   1      2.0449999999999875      63.394999999999982      63.394999999999982
    20   1      2.0449999999999875      65.439999999999984      65.439999999999984
    21   1      4.0899999999999812      63.394999999999982      65.439999999999984
    22   1      4.0899999999999812      65.439999999999984      63.394999999999982
    23   1      2.0449999999999875      63.394999999999982      67.484999999999971
    24   1      4.0899999999999812      63.394999999999982      69.529999999999973
    25   1      4.0899999999999812      65.439999999999984      67.484999999999971
    26   1      4.0899999999999812      67.484999999999971       61.34999999999998
    27   1      2.0449999999999875      67.484999999999971      63.394999999999982
    28   1      4.0899999999999812      67.484999999999971      65.439999999999984
    29   1      4.0899999999999812      69.529999999999973      63.394999999999982
    30   1      8.1799999999999837       53.16999999999998      63.394999999999982
    31   1      6.1349999999999838      57.259999999999984       61.34999999999998
    32   1      8.1799999999999837      55.214999999999982       61.34999999999998
    33   1      8.1799999999999837      57.259999999999984      59.304999999999971
    34   1      6.1349999999999838      55.214999999999982      63.394999999999982
    35   1      6.1349999999999838      57.259999999999984      65.439999999999984
    36   1      8.1799999999999837      55.214999999999982      65.439999999999984
    37   1      8.1799999999999837      57.259999999999984      63.394999999999982
    38   1      8.1799999999999837      57.259999999999984      67.484999999999971
    39   1      6.1349999999999838       61.34999999999998      57.259999999999984
    40   1      8.1799999999999837      59.304999999999971      57.259999999999984
    41   1      8.1799999999999837       61.34999999999998      55.214999999999982
    42   1      6.1349999999999838      59.304999999999971      59.304999999999971
    43   1      6.1349999999999838       61.34999999999998       61.34999999999998
    44   1      8.1799999999999837      59.304999999999971       61.34999999999998
    45   1      8.1799999999999837       61.34999999999998      59.304999999999971
    46   1      6.1349999999999838      59.304999999999971      63.394999999999982
    47   1      6.1349999999999838       61.34999999999998      65.439999999999984
    48   1      8.1799999999999837      59.304999999999971      65.439999999999984
    49   1      8.1799999999999837       61.34999999999998      63.394999999999982
    50   1      6.1349999999999838      59.304999999999971      67.484999999999971
    51   1      6.1349999999999838       61.34999999999998      69.529999999999973
    52   1      8.1799999999999837      59.304999999999971      69.529999999999973
    53   1      8.1799999999999837       61.34999999999998      67.484999999999971
    54   1      8.1799999999999837       61.34999999999998      71.574999999999989
    55   1      8.1799999999999837      63.394999999999982       53.16999999999998
    56   1      6.1349999999999838      63.394999999999982      55.214999999999982
    57   1      6.1349999999999838      65.439999999999984      57.259999999999984
    58   1      8.1799999999999837      63.394999999999982      57.259999999999984
    59   1      8.1799999999999837      65.439999999999984      55.214999999999982
    60   1      6.1349999999999838      63.394999999999982      59.304999999999971
    61   1      6.1349999999999838      65.439999999999984       61.34999999999998
    62   1      8.1799999999999837      63.394999999999982       61.34999999999998
    63   1      8.1799999999999837      65.439999999999984      59.304999999999971
    64   1      6.1349999999999838      63.394999999999982      63.394999999999982
    65   1      6.1349999999999838      65.439999999999984      65.439999999999984
    66   1      8.1799999999999837      63.394999999999982      65.439999999999984
    67   1      8.1799999999999837      65.439999999999984      63.394999999999982
    68   1      6.1349999999999838      63.394999999999982      67.484999999999971
    69   1      6.1349999999999838      65.439999999999984      69.529999999999973
    70   1      8.1799999999999837      63.394999999999982      69.529999999999973
    71   1      8.1799999999999837      65.439999999999984      67.484999999999971
    72   1      6.1349999999999838      63.394999999999982      71.574999999999989
    73   1      8.1799999999999837      63.394999999999982       73.61999999999999
    74   1      8.1799999999999837      65.439999999999984      71.574999999999989
    75   1      8.1799999999999837      67.484999999999971      57.259999999999984
    76   1      6.1349999999999838      67.484999999999971      59.304999999999971
    77   1      6.1349999999999838      69.529999999999973       61.34999999999998
    78   1      8.1799999999999837      67.484999999999971       61.34999999999998
    79   1      8.1799999999999837      69.529999999999973      59.304999999999971
    80   1      6.1349999999999838      67.484999999999971      63.394999999999982
    81   1      6.1349999999999838      69.529999999999973      65.439999999999984
    82   1      8.1799999999999837      67.484999999999971      65.439999999999984
    83   1      8.1799999999999837      69.529999999999973      63.394999999999982
    84   1      6.1349999999999838      67.484999999999971      67.484999999999971
    85   1      8.1799999999999837      67.484999999999971      69.529999999999973
    86   1      8.1799999999999837      69.529999999999973      67.484999999999971
    87   1      8.1799999999999837      71.574999999999989       61.34999999999998
    88   1      6.1349999999999838      71.574999999999989      63.394999999999982
    89   1      8.1799999999999837      71.574999999999989      65.439999999999984
    90   1      8.1799999999999837       73.61999999999999      63.394999999999982
    91   1      12.269999999999982      49.079999999999984      59.304999999999971
    92   1      12.269999999999982      49.079999999999984      63.394999999999982
    93   1      12.269999999999982      49.079999999999984      67.484999999999971
    94   1       10.22499999999998       53.16999999999998      57.259999999999984
    95   1      12.269999999999982      51.124999999999986      57.259999999999984
    96   1      12.269999999999982       53.16999999999998      55.214999999999982
    97   1       10.22499999999998       53.16999999999998       61.34999999999998
    98   1      12.269999999999982      51.124999999999986       61.34999999999998
    99   1      12.269999999999982       53.16999999999998      59.304999999999971
   100   1       10.22499999999998      51.124999999999986      63.394999999999982
   101   1       10.22499999999998       53.16999999999998      65.439999999999984
   102   1      12.269999999999982      51.124999999999986      65.439999999999984
   103   1      12.269999999999982       53.16999999999998      63.394999999999982
   104   1       10.22499999999998       53.16999999999998      69.529999999999973
   105   1      12.269999999999982      51.124999999999986      69.529999999999973
   106   1      12.269999999999982       53.16999999999998      67.484999999999971
   107   1      12.269999999999982       53.16999999999998      71.574999999999989
   108   1       10.22499999999998      57.259999999999984       53.16999999999998
   109   1      12.269999999999982      55.214999999999982       53.16999999999998
   110   1      12.269999999999982      57.259999999999984      51.124999999999986
   111   1       10.22499999999998      55.214999999999982      55.214999999999982
   112   1       10.22499999999998      57.259999999999984      57.259999999999984
   113   1      12.269999999999982      55.214999999999982      57.259999999999984
   114   1      12.269999999999982      57.259999999999984      55.214999999999982
   115   1       10.22499999999998      55.214999999999982      59.304999999999971
   116   1       10.22499999999998      57.259999999999984       61.34999999999998
   117   1      12.269999999999982      55.214999999999982       61.34999999999998
   118   1      12.269999999999982      57.259999999999984      59.304999999999971
   119   1       10.22499999999998      55.214999999999982      63.394999999999982
   120   1       10.22499999999998      57.259999999999984      65.439999999999984
   121   1      12.269999999999982      55.214999999999982      65.439999999999984
   122   1      12.269999999999982      57.259999999999984      63.394999999999982
   123   1       10.22499999999998      55.214999999999982      67.484999999999971
   124   1       10.22499999999998      57.259999999999984      69.529999999999973
   125   1      12.269999999999982      55.214999999999982      69.529999999999973
   126   1      12.269999999999982      57.259999999999984      67.484999999999971
   127   1       10.22499999999998      55.214999999999982      71.574999999999989
   128   1       10.22499999999998      57.259999999999984       73.61999999999999
   129   1      12.269999999999982      55.214999999999982       73.61999999999999
   130   1      12.269999999999982      57.259999999999984      71.574999999999989
   131   1      12.269999999999982      57.259999999999984      75.664999999999978
   132   1      12.269999999999982      59.304999999999971      49.079999999999984
   133   1       10.22499999999998       61.34999999999998       53.16999999999998
   134   1      12.269999999999982      59.304999999999971       53.16999999999998
   135   1      12.269999999999982       61.34999999999998      51.124999999999986
   136   1       10.22499999999998      59.304999999999971      55.214999999999982
   137   1       10.22499999999998       61.34999999999998      57.259999999999984
   138   1      12.269999999999982      59.304999999999971      57.259999999999984
   139   1      12.269999999999982       61.34999999999998      55.214999999999982
   140   1       10.22499999999998      59.304999999999971      59.304999999999971
   141   1       10.22499999999998       61.34999999999998       61.34999999999998
   142   1      12.269999999999982      59.304999999999971       61.34999999999998
   143   1      12.269999999999982       61.34999999999998      59.304999999999971
   144   1       10.22499999999998      59.304999999999971      63.394999999999982
   145   1       10.22499999999998       61.34999999999998      65.439999999999984
   146   1      12.269999999999982      59.304999999999971      65.439999999999984
   147   1      12.269999999999982       61.34999999999998      63.394999999999982
   148   1       10.22499999999998      59.304999999999971      67.484999999999971
   149   1       10.22499999999998       61.34999999999998      69.529999999999973
   150   1      12.269999999999982      59.304999999999971      69.529999999999973
   151   1      12.269999999999982       61.34999999999998      67.484999999999971
   152   1       10.22499999999998      59.304999999999971      71.574999999999989
   153   1       10.22499999999998       61.34999999999998       73.61999999999999
   154   1      12.269999999999982      59.304999999999971       73.61999999999999
   155   1      12.269999999999982       61.34999999999998      71.574999999999989
   156   1      12.269999999999982      59.304999999999971       77.70999999999998
   157   1      12.269999999999982       61.34999999999998      75.664999999999978
   158   1      12.269999999999982      63.394999999999982      49.079999999999984
   159   1       10.22499999999998      63.394999999999982      51.124999999999986
   160   1       10.22499999999998      65.439999999999984       53.16999999999998
   161   1      12.269999999999982      63.394999999999982       53.16999999999998
   162   1      12.269999999999982      65.439999999999984      51.124999999999986
   163   1       10.22499999999998      63.394999999999982      55.214999999999982
   164   1       10.22499999999998      65.439999999999984      57.259999999999984
   165   1      12.269999999999982      63.394999999999982      57.259999999999984
   166   1      12.269999999999982      65.439999999999984      55.214999999999982
   167   1       10.22499999999998      63.394999999999982      59.304999999999971
   168   1       10.22499999999998      65.439999999999984       61.34999999999998
   169   1      12.269999999999982      63.394999999999982       61.34999999999998
   170   1      12.269999999999982      65.439999999999984      59.304999999999971
   171   1       10.22499999999998      63.394999999999982      63.394999999999982
   172   1       10.22499999999998      65.439999999999984      65.439999999999984
   173   1      12.269999999999982      63.394999999999982      65.439999999999984
   174   1      12.269999999999982      65.439999999999984      63.394999999999982
   175   1       10.22499999999998      63.394999999999982      67.484999999999971
   176   1       10.22499999999998      65.439999999999984      69.529999999999973
   177   1      12.269999999999982      63.394999999999982      69.529999999999973
   178   1      12.269999999999982      65.439999999999984      67.484999999999971
   179   1       10.22499999999998      63.394999999999982      71.574999999999989
   180   1       10.22499999999998      65.439999999999984       73.61999999999999
   181   1      12.269999999999982      63.394999999999982       73.61999999999999
   182   1      12.269999999999982      65.439999999999984      71.574999999999989
   183   1       10.22499999999998      63.394999999999982      75.664999999999978
   184   1      12.269999999999982      63.394999999999982       77.70999999999998
   185   1      12.269999999999982      65.439999999999984      75.664999999999978
   186   1      12.269999999999982      67.484999999999971      49.079999999999984
   187   1       10.22499999999998      69.529999999999973       53.16999999999998
   188   1      12.269999999999982      67.484999999999971       53.16999999999998
   189   1      12.269999999999982      69.529999999999973      51.124999999999986
   190   1       10.22499999999998      67.484999999999971      55.214999999999982
   191   1       10.22499999999998      69.529999999999973      57.259999999999984
   192   1      12.269999999999982      67.484999999999971      57.259999999999984
   193   1      12.269999999999982      69.529999999999973      55.214999999999982
   194   1       10.22499999999998      67.484999999999971      59.304999999999971
   195   1       10.22499999999998      69.529999999999973       61.34999999999998
   196   1      12.269999999999982      67.484999999999971       61.34999999999998
   197   1      12.269999999999982      69.529999999999973      59.304999999999971
   198   1       10.22499999999998      67.484999999999971      63.394999999999982
   199   1       10.22499999999998      69.529999999999973      65.439999999999984
   200   1      12.269999999999982      67.484999999999971      65.439999999999984
   201   1      12.269999999999982      69.529999999999973      63.394999999999982
   202   1       10.22499999999998      67.484999999999971      67.484999999999971
   203   1       10.22499999999998      69.529999999999973      69.529999999999973
   204   1      12.269999999999982      67.484999999999971      69.529999999999973
   205   1      12.269999999999982      69.529999999999973      67.484999999999971
   206   1       10.22499999999998      67.484999999999971      71.574999999999989
   207   1       10.22499999999998      69.529999999999973       73.61999999999999
   208   1      12.269999999999982      67.484999999999971       73.61999999999999
   209   1      12.269999999999982      69.529999999999973      71.574999999999989
   210   1      12.269999999999982      67.484999999999971       77.70999999999998
   211   1      12.269999999999982      69.529999999999973      75.664999999999978
   212   1      12.269999999999982      71.574999999999989       53.16999999999998
   213   1       10.22499999999998      71.574999999999989      55.214999999999982
   214   1       10.22499999999998       73.61999999999999      57.259999999999984
   215   1      12.269999999999982      71.574999999999989      57.259999999999984
   216   1      12.269999999999982       73.61999999999999      55.214999999999982
   217   1       10.22499999999998      71.574999999999989      59.304999999999971
   218   1       10.22499999999998       73.61999999999999       61.34999999999998
   219   1      12.269999999999982      71.574999999999989       61.34999999999998
   220   1      12.269999999999982       73.61999999999999      59.304999999999971
   221   1       10.22499999999998      71.574999999999989      63.394999999999982
   222   1       10.22499999999998       73.61999999999999      65.439999999999984
   223   1      12.269999999999982      71.574999999999989      65.439999999999984
   224   1      12.269999999999982       73.61999999999999      63.394999999999982
   225   1       10.22499999999998      71.574999999999989      67.484999999999971
   226   1       10.22499999999998       73.61999999999999      69.529999999999973
   227   1      12.269999999999982      71.574999999999989      69.529999999999973
   228   1      12.269999999999982       73.61999999999999      67.484999999999971
   229   1       10.22499999999998      71.574999999999989      71.574999999999989
   230   1      12.269999999999982      71.574999999999989       73.61999999999999
   231   1      12.269999999999982       73.61999999999999      71.574999999999989
   232   1      12.269999999999982      75.664999999999978      57.259999999999984
   233   1      12.269999999999982      75.664999999999978       61.34999999999998
   234   1      12.269999999999982       77.70999999999998      59.304999999999971
   235   1       10.22499999999998      75.664999999999978      63.394999999999982
   236   1      12.269999999999982      75.664999999999978      65.439999999999984
   237   1      12.269999999999982       77.70999999999998      63.394999999999982
   238   1      12.269999999999982      75.664999999999978      69.529999999999973
   239   1      12.269999999999982       77.70999999999998      67.484999999999971
   240   1      16.359999999999985      40.899999999999977      63.394999999999982
   241   1      14.314999999999982      44.989999999999981       61.34999999999998
   242   1      16.359999999999985      42.944999999999979       61.34999999999998
   243   1      16.359999999999985      44.989999999999981      59.304999999999971
   244   1      14.314999999999982      44.989999999999981      65.439999999999984
   245   1      16.359999999999985      42.944999999999979      65.439999999999984
   246   1      16.359999999999985      44.989999999999981      63.394999999999982
   247   1      16.359999999999985      44.989999999999981      67.484999999999971
   248   1      14.314999999999982      49.079999999999984      57.259999999999984
   249   1      16.359999999999985      47.034999999999975      57.259999999999984
   250   1      16.359999999999985      49.079999999999984      55.214999999999982
   251   1      14.314999999999982      47.034999999999975      59.304999999999971
   252   1      14.314999999999982      49.079999999999984       61.34999999999998
   253   1      16.359999999999985      47.034999999999975       61.34999999999998
   254   1      16.359999999999985      49.079999999999984      59.304999999999971
   255   1      14.314999999999982      47.034999999999975      63.394999999999982
   256   1      14.314999999999982      49.079999999999984      65.439999999999984
   257   1      16.359999999999985      47.034999999999975      65.439999999999984
   258   1      16.359999999999985      49.079999999999984      63.394999999999982
   259   1      14.314999999999982      47.034999999999975      67.484999999999971
   260   1      14.314999999999982      49.079999999999984      69.529999999999973
   261   1      16.359999999999985      47.034999999999975      69.529999999999973
   262   1      16.359999999999985      49.079999999999984      67.484999999999971
   263   1      16.359999999999985      49.079999999999984      71.574999999999989
   264   1      14.314999999999982       53.16999999999998       53.16999999999998
   265   1      16.359999999999985      51.124999999999986       53.16999999999998
   266   1      16.359999999999985       53.16999999999998      51.124999999999986
   267   1      14.314999999999982      51.124999999999986      55.214999999999982
   268   1      14.314999999999982       53.16999999999998      57.259999999999984
   269   1      16.359999999999985      51.124999999999986      57.259999999999984
   270   1      16.359999999999985       53.16999999999998      55.214999999999982
   271   1      14.314999999999982      51.124999999999986      59.304999999999971
   272   1      14.314999999999982       53.16999999999998       61.34999999999998
   273   1      16.359999999999985      51.124999999999986       61.34999999999998
   274   1      16.359999999999985       53.16999999999998      59.304999999999971
   275   1      14.314999999999982      51.124999999999986      63.394999999999982
   276   1      14.314999999999982       53.16999999999998      65.439999999999984
   277   1      16.359999999999985      51.124999999999986      65.439999999999984
   278   1      16.359999999999985       53.16999999999998      63.394999999999982
   279   1      14.314999999999982      51.124999999999986      67.484999999999971
   280   1      14.314999999999982       53.16999999999998      69.529999999999973
   281   1      16.359999999999985      51.124999999999986      69.529999999999973
   282   1      16.359999999999985       53.16999999999998      67.484999999999971
   283   1      14.314999999999982      51.124999999999986      71.574999999999989
   284   1      14.314999999999982       53.16999999999998       73.61999999999999
   285   1      16.359999999999985      51.124999999999986       73.61999999999999
   286   1      16.359999999999985       53.16999999999998      71.574999999999989
   287   1      16.359999999999985       53.16999999999998      75.664999999999978
   288   1      14.314999999999982      57.259999999999984      49.079999999999984
   289   1      16.359999999999985      55.214999999999982      49.079999999999984
   290   1      16.359999999999985      57.259999999999984      47.034999999999975
   291   1      14.314999999999982      55.214999999999982      51.124999999999986
   292   1      14.314999999999982      57.259999999999984       53.16999999999998
   293   1      16.359999999999985      55.214999999999982       53.16999999999998
   294   1      16.359999999999985      57.259999999999984      51.124999999999986
   295   1      14.314999999999982      55.214999999999982      55.214999999999982
   296   1      14.314999999999982      57.259999999999984      57.259999999999984
   297   1      16.359999999999985      55.214999999999982      57.259999999999984
   298   1      16.359999999999985      57.259999999999984      55.214999999999982
   299   1      14.314999999999982      55.214999999999982      59.304999999999971
   300   1      14.314999999999982      57.259999999999984       61.34999999999998
   301   1      16.359999999999985      55.214999999999982       61.34999999999998
   302   1      16.359999999999985      57.259999999999984      59.304999999999971
   303   1      14.314999999999982      55.214999999999982      63.394999999999982
   304   1      14.314999999999982      57.259999999999984      65.439999999999984
   305   1      16.359999999999985      55.214999999999982      65.439999999999984
   306   1      16.359999999999985      57.259999999999984      63.394999999999982
   307   1      14.314999999999982      55.214999999999982      67.484999999999971
   308   1      14.314999999999982      57.259999999999984      69.529999999999973
   309   1      16.359999999999985      55.214999999999982      69.529999999999973
   310   1      16.359999999999985      57.259999999999984      67.484999999999971
   311   1      14.314999999999982      55.214999999999982      71.574999999999989
   312   1      14.314999999999982      57.259999999999984       73.61999999999999
   313   1      16.359999999999985      55.214999999999982       73.61999999999999
   314   1      16.359999999999985      57.259999999999984      71.574999999999989
   315   1      14.314999999999982      55.214999999999982      75.664999999999978
   316   1      14.314999999999982      57.259999999999984       77.70999999999998
   317   1      16.359999999999985      55.214999999999982       77.70999999999998
   318   1      16.359999999999985      57.259999999999984      75.664999999999978
   319   1      16.359999999999985      57.259999999999984      79.754999999999967
   320   1      14.314999999999982       61.34999999999998      44.989999999999981
   321   1      16.359999999999985      59.304999999999971      44.989999999999981
   322   1      16.359999999999985       61.34999999999998      42.944999999999979
   323   1      14.314999999999982      59.304999999999971      47.034999999999975
   324   1      14.314999999999982       61.34999999999998      49.079999999999984
   325   1      16.359999999999985      59.304999999999971      49.079999999999984
   326   1      16.359999999999985       61.34999999999998      47.034999999999975
   327   1      14.314999999999982      59.304999999999971      51.124999999999986
   328   1      14.314999999999982       61.34999999999998       53.16999999999998
   329   1      16.359999999999985      59.304999999999971       53.16999999999998
   330   1      16.359999999999985       61.34999999999998      51.124999999999986
   331   1      14.314999999999982      59.304999999999971      55.214999999999982
   332   1      14.314999999999982       61.34999999999998      57.259999999999984
   333   1      16.359999999999985      59.304999999999971      57.259999999999984
   334   1      16.359999999999985       61.34999999999998      55.214999999999982
   335   1      14.314999999999982      59.304999999999971      59.304999999999971
   336   1      14.314999999999982       61.34999999999998       61.34999999999998
   337   1      16.359999999999985      59.304999999999971       61.34999999999998
   338   1      16.359999999999985       61.34999999999998      59.304999999999971
   339   1      14.314999999999982      59.304999999999971      63.394999999999982
   340   1      14.314999999999982       61.34999999999998      65.439999999999984
   341   1      16.359999999999985      59.304999999999971      65.439999999999984
   342   1      16.359999999999985       61.34999999999998      63.394999999999982
   343   1      14.314999999999982      59.304999999999971      67.484999999999971
   344   1      14.314999999999982       61.34999999999998      69.529999999999973
   345   1      16.359999999999985      59.304999999999971      69.529999999999973
   346   1      16.359999999999985       61.34999999999998      67.484999999999971
   347   1      14.314999999999982      59.304999999999971      71.574999999999989
   348   1      14.314999999999982       61.34999999999998       73.61999999999999
   349   1      16.359999999999985      59.304999999999971       73.61999999999999
   350   1      16.359999999999985       61.34999999999998      71.574999999999989
   351   1      14.314999999999982      59.304999999999971      75.664999999999978
   352   1      14.314999999999982       61.34999999999998       77.70999999999998
   353   1      16.359999999999985      59.304999999999971       77.70999999999998
   354   1      16.359999999999985       61.34999999999998      75.664999999999978
   355   1      14.314999999999982      59.304999999999971      79.754999999999967
   356   1      14.314999999999982       61.34999999999998      81.799999999999969
   357   1      16.359999999999985      59.304999999999971      81.799999999999969
   358   1      16.359999999999985       61.34999999999998      79.754999999999967