LAMMPS data file via write_data, version 30 Nov 2020, timestep = 0

30423 atoms
5 atom types

0 95 xlo xhi
0 95 ylo yhi
0 95 zlo zhi

Masses

1 58.69
2 58.933
3 51.96
4 55.847
5 54.94

Atoms # atomic

1 5 1.7974999999999997 41.3425 43.14 0 0 0
2 2 1.7974999999999997 41.3425 46.73500000000001 0 0 0
4 3 1.7974999999999997 43.14 41.3425 0 0 0
5 3 0 44.9375 44.9375 0 0 0
6 3 1.7974999999999997 43.14 44.9375 0 0 0
7 3 1.7974999999999997 44.9375 43.14 0 0 0
8 3 0 43.14 46.73500000000001 0 0 0
11 5 1.7974999999999997 44.9375 46.73500000000001 0 0 0
14 4 1.7974999999999997 46.73500000000001 41.3425 0 0 0
15 4 0 46.73500000000001 43.14 0 0 0
17 3 1.7974999999999997 46.73500000000001 44.9375 0 0 0
19 4 0 46.73500000000001 46.73500000000001 0 0 0
34 1 5.392500000000005 34.1525 43.14 0 0 0
35 3 5.392500000000005 34.1525 46.73500000000001 0 0 0
37 5 5.392500000000005 35.95 41.3425 0 0 0
38 1 5.392500000000005 37.7475 39.545 0 0 0
39 4 3.5949999999999993 37.7475 44.9375 0 0 0
40 1 5.392500000000005 35.95 44.9375 0 0 0
41 1 5.392500000000005 37.7475 43.14 0 0 0
42 1 3.5949999999999993 35.95 46.73500000000001 0 0 0
45 4 5.392500000000005 37.7475 46.73500000000001 0 0 0
49 2 5.392500000000005 39.545 37.7475 0 0 0
50 3 5.392500000000005 41.3425 35.95 0 0 0
51 2 3.5949999999999993 39.545 39.545 0 0 0
52 3 3.5949999999999993 41.3425 41.3425 0 0 0
53 1 5.392500000000005 39.545 41.3425 0 0 0
54 4 5.392500000000005 41.3425 39.545 0 0 0
55 4 3.5949999999999993 39.545 43.14 0 0 0
56 5 3.5949999999999993 41.3425 44.9375 0 0 0
57 1 5.392500000000005 39.545 44.9375 0 0 0
58 1 5.392500000000005 41.3425 43.14 0 0 0
59 4 3.5949999999999993 39.545 46.73500000000001 0 0 0
62 5 5.392500000000005 41.3425 46.73500000000001 0 0 0
71 4 5.392500000000005 43.14 34.1525 0 0 0
72 5 3.5949999999999993 44.9375 37.7475 0 0 0
73 5 5.392500000000005 43.14 37.7475 0 0 0
74 3 5.392500000000005 44.9375 35.95 0 0 0
75 3 3.5949999999999993 43.14 39.545 0 0 0
76 2 3.5949999999999993 44.9375 41.3425 0 0 0
77 3 5.392500000000005 43.14 41.3425 0 0 0
78 5 5.392500000000005 44.9375 39.545 0 0 0
79 2 3.5949999999999993 43.14 43.14 0 0 0
80 1 3.5949999999999993 44.9375 44.9375 0 0 0
81 4 5.392500000000005 43.14 44.9375 0 0 0
82 1 5.392500000000005 44.9375 43.14 0 0 0
83 2 3.5949999999999993 43.14 46.73500000000001 0 0 0
86 3 5.392500000000005 44.9375 46.73500000000001 0 0 0
97 2 5.392500000000005 46.73500000000001 34.1525 0 0 0
98 3 3.5949999999999993 46.73500000000001 35.95 0 0 0
100 3 5.392500000000005 46.73500000000001 37.7475 0 0 0
102 1 3.5949999999999993 46.73500000000001 39.545 0 0 0
104 3 5.392500000000005 46.73500000000001 41.3425 0 0 0
106 1 3.5949999999999993 46.73500000000001 43.14 0 0 0
108 5 5.392500000000005 46.73500000000001 44.9375 0 0 0
110 2 3.5949999999999993 46.73500000000001 46.73500000000001 0 0 0
175 4 8.987500000000004 26.962500000000002 43.14 0 0 0
176 2 8.987500000000004 26.962500000000002 46.73500000000001 0 0 0
178 3 8.987500000000004 30.557500000000005 35.95 0 0 0
179 5 8.987500000000004 28.760000000000005 41.3425 0 0 0
180 4 8.987500000000004 30.557500000000005 39.545 0 0 0
181 4 7.190000000000005 30.557500000000005 44.9375 0 0 0
182 4 8.987500000000004 28.760000000000005 44.9375 0 0 0
183 2 8.987500000000004 30.557500000000005 43.14 0 0 0
184 3 7.190000000000005 28.760000000000005 46.73500000000001 0 0 0
187 5 8.987500000000004 30.557500000000005 46.73500000000001 0 0 0
192 3 8.987500000000004 32.355000000000004 34.1525 0 0 0
193 2 8.987500000000004 34.1525 32.355000000000004 0 0 0
194 4 7.190000000000005 34.1525 37.7475 0 0 0
195 3 8.987500000000004 32.355000000000004 37.7475 0 0 0
196 4 8.987500000000004 34.1525 35.95 0 0 0
197 4 7.190000000000005 32.355000000000004 39.545 0 0 0
198 5 7.190000000000005 34.1525 41.3425 0 0 0
199 1 8.987500000000004 32.355000000000004 41.3425 0 0 0
200 1 8.987500000000004 34.1525 39.545 0 0 0
201 5 7.190000000000005 32.355000000000004 43.14 0 0 0
202 3 7.190000000000005 34.1525 44.9375 0 0 0
203 1 8.987500000000004 32.355000000000004 44.9375 0 0 0
204 4 8.987500000000004 34.1525 43.14 0 0 0
205 3 7.190000000000005 32.355000000000004 46.73500000000001 0 0 0
208 2 8.987500000000004 34.1525 46.73500000000001 0 0 0
220 2 8.987500000000004 35.95 30.557500000000005 0 0 0
221 4 7.190000000000005 37.7475 34.1525 0 0 0
222 2 8.987500000000004 35.95 34.1525 0 0 0
223 4 8.987500000000004 37.7475 32.355000000000004 0 0 0
224 3 7.190000000000005 35.95 35.95 0 0 0
225 2 7.190000000000005 37.7475 37.7475 0 0 0
226 5 8.987500000000004 35.95 37.7475 0 0 0
227 4 8.987500000000004 37.7475 35.95 0 0 0
228 5 7.190000000000005 35.95 39.545 0 0 0
229 3 7.190000000000005 37.7475 41.3425 0 0 0
230 5 8.987500000000004 35.95 41.3425 0 0 0
231 3 8.987500000000004 37.7475 39.545 0 0 0
232 2 7.190000000000005 35.95 43.14 0 0 0
233 4 7.190000000000005 37.7475 44.9375 0 0 0
234 3 8.987500000000004 35.95 44.9375 0 0 0
235 2 8.987500000000004 37.7475 43.14 0 0 0
236 3 7.190000000000005 35.95 46.73500000000001 0 0 0
239 5 8.987500000000004 37.7475 46.73500000000001 0 0 0
254 4 8.987500000000004 39.545 30.557500000000005 0 0 0
255 2 8.987500000000004 41.3425 28.760000000000005 0 0 0
256 2 7.190000000000005 39.545 32.355000000000004 0 0 0
257 4 7.190000000000005 41.3425 34.1525 0 0 0
258 1 8.987500000000004 39.545 34.1525 0 0 0
259 2 8.987500000000004 41.3425 32.355000000000004 0 0 0
260 4 7.190000000000005 39.545 35.95 0 0 0
261 3 7.190000000000005 41.3425 37.7475 0 0 0
262 5 8.987500000000004 39.545 37.7475 0 0 0
263 4 8.987500000000004 41.3425 35.95 0 0 0
264 2 7.190000000000005 39.545 39.545 0 0 0
265 1 7.190000000000005 41.3425 41.3425 0 0 0
266 4 8.987500000000004 39.545 41.3425 0 0 0
267 4 8.987500000000004 41.3425 39.545 0 0 0
268 4 7.190000000000005 39.545 43.14 0 0 0
269 1 7.190000000000005 41.3425 44.9375 0 0 0
270 4 8.987500000000004 39.545 44.9375 0 0 0
271 4 8.987500000000004 41.3425 43.14 0 0 0
272 1 7.190000000000005 39.545 46.73500000000001 0 0 0
275 1 8.987500000000004 41.3425 46.73500000000001 0 0 0
292 5 8.987500000000004 43.14 26.962500000000002 0 0 0
293 1 7.190000000000005 44.9375 30.557500000000005 0 0 0
294 3 8.987500000000004 43.14 30.557500000000005 0 0 0
295 2 8.987500000000004 44.9375 28.760000000000005 0 0 0
296 5 7.190000000000005 43.14 32.355000000000004 0 0 0
297 3 7.190000000000005 44.9375 34.1525 0 0 0
298 4 8.987500000000004 43.14 34.1525 0 0 0
299 1 8.987500000000004 44.9375 32.355000000000004 0 0 0
300 1 7.190000000000005 43.14 35.95 0 0 0
301 2 7.190000000000005 44.9375 37.7475 0 0 0
302 3 8.987500000000004 43.14 37.7475 0 0 0
303 2 8.987500000000004 44.9375 35.95 0 0 0
304 2 7.190000000000005 43.14 39.545 0 0 0
305 5 7.190000000000005 44.9375 41.3425 0 0 0
306 5 8.987500000000004 43.14 41.3425 0 0 0
307 2 8.987500000000004 44.9375 39.545 0 0 0
308 2 7.190000000000005 43.14 43.14 0 0 0
309 4 7.190000000000005 44.9375 44.9375 0 0 0
310 2 8.987500000000004 43.14 44.9375 0 0 0
311 1 8.987500000000004 44.9375 43.14 0 0 0
312 3 7.190000000000005 43.14 46.73500000000001 0 0 0
315 5 8.987500000000004 44.9375 46.73500000000001 0 0 0
334 4 8.987500000000004 46.73500000000001 26.962500000000002 0 0 0
335 5 7.190000000000005 46.73500000000001 28.760000000000005 0 0 0
337 3 8.987500000000004 46.73500000000001 30.557500000000005 0 0 0
339 3 7.190000000000005 46.73500000000001 32.355000000000004 0 0 0
341 5 8.987500000000004 46.73500000000001 34.1525 0 0 0
343 1 7.190000000000005 46.73500000000001 35.95 0 0 0
345 4 8.987500000000004 46.73500000000001 37.7475 0 0 0
347 3 7.190000000000005 46.73500000000001 39.545 0 0 0
349 1 8.987500000000004 46.73500000000001 41.3425 0 0 0
351 3 7.190000000000005 46.73500000000001 43.14 0 0 0
353 1 8.987500000000004 46.73500000000001 44.9375 0 0 0
355 5 7.190000000000005 46.73500000000001 46.73500000000001 0 0 0
516 3 12.582500000000005 19.7725 43.14 0 0 0
517 2 12.582500000000005 19.7725 46.73500000000001 0 0 0
519 4 12.582500000000005 23.367500000000003 35.95 0 0 0
520 5 12.582500000000005 21.570000000000004 41.3425 0 0 0
521 4 12.582500000000005 23.367500000000003 39.545 0 0 0
522 2 10.785000000000004 23.367500000000003 44.9375 0 0 0
523 3 12.582500000000005 21.570000000000004 44.9375 0 0 0
524 4 12.582500000000005 23.367500000000003 43.14 0 0 0
525 4 10.785000000000004 21.570000000000004 46.73500000000001 0 0 0
528 5 12.582500000000005 23.367500000000003 46.73500000000001 0 0 0
533 2 12.582500000000005 26.962500000000002 28.760000000000005 0 0 0
534 1 12.582500000000005 25.165000000000003 34.1525 0 0 0
535 3 12.582500000000005 26.962500000000002 32.355000000000004 0 0 0
536 2 10.785000000000004 26.962500000000002 37.7475 0 0 0
537 3 12.582500000000005 25.165000000000003 37.7475 0 0 0
538 3 12.582500000000005 26.962500000000002 35.95 0 0 0
539 5 10.785000000000004 25.165000000000003 39.545 0 0 0
540 5 10.785000000000004 26.962500000000002 41.3425 0 0 0
541 5 12.582500000000005 25.165000000000003 41.3425 0 0 0
542 5 12.582500000000005 26.962500000000002 39.545 0 0 0
543 3 10.785000000000004 25.165000000000003 43.14 0 0 0
544 1 10.785000000000004 26.962500000000002 44.9375 0 0 0
545 2 12.582500000000005 25.165000000000003 44.9375 0 0 0
546 3 12.582500000000005 26.962500000000002 43.14 0 0 0
547 3 10.785000000000004 25.165000000000003 46.73500000000001 0 0 0
550 3 12.582500000000005 26.962500000000002 46.73500000000001 0 0 0
563 3 12.582500000000005 28.760000000000005 26.962500000000002 0 0 0
564 1 10.785000000000004 30.557500000000005 30.557500000000005 0 0 0
565 1 12.582500000000005 28.760000000000005 30.557500000000005 0 0 0
566 2 12.582500000000005 30.557500000000005 28.760000000000005 0 0 0
567 1 10.785000000000004 28.760000000000005 32.355000000000004 0 0 0
568 2 10.785000000000004 30.557500000000005 34.1525 0 0 0
569 2 12.582500000000005 28.760000000000005 34.1525 0 0 0
570 1 12.582500000000005 30.557500000000005 32.355000000000004 0 0 0
571 2 10.785000000000004 28.760000000000005 35.95 0 0 0
572 1 10.785000000000004 30.557500000000005 37.7475 0 0 0
573 1 12.582500000000005 28.760000000000005 37.7475 0 0 0
574 2 12.582500000000005 30.557500000000005 35.95 0 0 0
575 2 10.785000000000004 28.760000000000005 39.545 0 0 0
576 2 10.785000000000004 30.557500000000005 41.3425 0 0 0
577 5 12.582500000000005 28.760000000000005 41.3425 0 0 0
578 3 12.582500000000005 30.557500000000005 39.545 0 0 0
579 2 10.785000000000004 28.760000000000005 43.14 0 0 0
580 2 10.785000000000004 30.557500000000005 44.9375 0 0 0
581 2 12.582500000000005 28.760000000000005 44.9375 0 0 0
582 3 12.582500000000005 30.557500000000005 43.14 0 0 0
583 1 10.785000000000004 28.760000000000005 46.73500000000001 0 0 0
586 3 12.582500000000005 30.557500000000005 46.73500000000001 0 0 0
605 1 12.582500000000005 32.355000000000004 26.962500000000002 0 0 0
606 5 12.582500000000005 34.1525 25.165000000000003 0 0 0
607 4 10.785000000000004 32.355000000000004 28.760000000000005 0 0 0
608 1 10.785000000000004 34.1525 30.557500000000005 0 0 0
609 4 12.582500000000005 32.355000000000004 30.557500000000005 0 0 0
610 2 12.582500000000005 34.1525 28.760000000000005 0 0 0
611 1 10.785000000000004 32.355000000000004 32.355000000000004 0 0 0
612 3 10.785000000000004 34.1525 34.1525 0 0 0
613 5 12.582500000000005 32.355000000000004 34.1525 0 0 0
614 3 12.582500000000005 34.1525 32.355000000000004 0 0 0
615 5 10.785000000000004 32.355000000000004 35.95 0 0 0
616 4 10.785000000000004 34.1525 37.7475 0 0 0
617 3 12.582500000000005 32.355000000000004 37.7475 0 0 0
618 2 12.582500000000005 34.1525 35.95 0 0 0
619 2 10.785000000000004 32.355000000000004 39.545 0 0 0
620 2 10.785000000000004 34.1525 41.3425 0 0 0
621 3 12.582500000000005 32.355000000000004 41.3425 0 0 0
622 2 12.582500000000005 34.1525 39.545 0 0 0
623 2 10.785000000000004 32.355000000000004 43.14 0 0 0
624 4 10.785000000000004 34.1525 44.9375 0 0 0
625 2 12.582500000000005 32.355000000000004 44.9375 0 0 0
626 5 12.582500000000005 34.1525 43.14 0 0 0
627 5 10.785000000000004 32.355000000000004 46.73500000000001 0 0 0
630 4 12.582500000000005 34.1525 46.73500000000001 0 0 0
651 2 12.582500000000005 35.95 23.367500000000003 0 0 0
652 3 10.785000000000004 37.7475 26.962500000000002 0 0 0
653 4 12.582500000000005 35.95 26.962500000000002 0 0 0
654 3 12.582500000000005 37.7475 25.165000000000003 0 0 0
655 3 10.785000000000004 35.95 28.760000000000005 0 0 0
656 1 10.785000000000004 37.7475 30.557500000000005 0 0 0
657 1 12.582500000000005 35.95 30.557500000000005 0 0 0
658 4 12.582500000000005 37.7475 28.760000000000005 0 0 0
659 4 10.785000000000004 35.95 32.355000000000004 0 0 0
660 1 10.785000000000004 37.7475 34.1525 0 0 0
661 2 12.582500000000005 35.95 34.1525 0 0 0
662 3 12.582500000000005 37.7475 32.355000000000004 0 0 0
663 3 10.785000000000004 35.95 35.95 0 0 0
664 2 10.785000000000004 37.7475 37.7475 0 0 0
665 2 12.582500000000005 35.95 37.7475 0 0 0
666 2 12.582500000000005 37.7475 35.95 0 0 0
667 4 10.785000000000004 35.95 39.545 0 0 0
668 4 10.785000000000004 37.7475 41.3425 0 0 0
669 4 12.582500000000005 35.95 41.3425 0 0 0
670 1 12.582500000000005 37.7475 39.545 0 0 0
671 5 10.785000000000004 35.95 43.14 0 0 0
672 2 10.785000000000004 37.7475 44.9375 0 0 0
673 1 12.582500000000005 35.95 44.9375 0 0 0
674 1 12.582500000000005 37.7475 43.14 0 0 0
675 2 10.785000000000004 35.95 46.73500000000001 0 0 0
678 3 12.582500000000005 37.7475 46.73500000000001 0 0 0
701 2 12.582500000000005 39.545 23.367500000000003 0 0 0
702 1 12.582500000000005 41.3425 21.570000000000004 0 0 0
703 2 10.785000000000004 39.545 25.165000000000003 0 0 0
704 2 10.785000000000004 41.3425 26.962500000000002 0 0 0
705 3 12.582500000000005 39.545 26.962500000000002 0 0 0
706 4 12.582500000000005 41.3425 25.165000000000003 0 0 0
707 5 10.785000000000004 39.545 28.760000000000005 0 0 0
708 1 10.785000000000004 41.3425 30.557500000000005 0 0 0
709 4 12.582500000000005 39.545 30.557500000000005 0 0 0
710 3 12.582500000000005 41.3425 28.760000000000005 0 0 0
711 3 10.785000000000004 39.545 32.355000000000004 0 0 0
712 3 10.785000000000004 41.3425 34.1525 0 0 0
713 1 12.582500000000005 39.545 34.1525 0 0 0
714 4 12.582500000000005 41.3425 32.355000000000004 0 0 0
715 5 10.785000000000004 39.545 35.95 0 0 0
716 2 10.785000000000004 41.3425 37.7475 0 0 0
717 3 12.582500000000005 39.545 37.7475 0 0 0
718 2 12.582500000000005 41.3425 35.95 0 0 0
719 5 10.785000000000004 39.545 39.545 0 0 0
720 5 10.785000000000004 41.3425 41.3425 0 0 0
721 1 12.582500000000005 39.545 41.3425 0 0 0
722 1 12.582500000000005 41.3425 39.545 0 0 0
723 4 10.785000000000004 39.545 43.14 0 0 0
724 5 10.785000000000004 41.3425 44.9375 0 0 0
725 5 12.582500000000005 39.545 44.9375 0 0 0
726 2 12.582500000000005 41.3425 43.14 0 0 0
727 3 10.785000000000004 39.545 46.73500000000001 0 0 0
730 2 12.582500000000005 41.3425 46.73500000000001 0 0 0
755 2 12.582500000000005 43.14 19.7725 0 0 0
756 3 10.785000000000004 44.9375 23.367500000000003 0 0 0
757 1 12.582500000000005 43.14 23.367500000000003 0 0 0
758 5 12.582500000000005 44.9375 21.570000000000004 0 0 0
759 1 10.785000000000004 43.14 25.165000000000003 0 0 0
760 2 10.785000000000004 44.9375 26.962500000000002 0 0 0
761 5 12.582500000000005 43.14 26.962500000000002 0 0 0
762 2 12.582500000000005 44.9375 25.165000000000003 0 0 0
763 4 10.785000000000004 43.14 28.760000000000005 0 0 0
764 4 10.785000000000004 44.9375 30.557500000000005 0 0 0
765 5 12.582500000000005 43.14 30.557500000000005 0 0 0
766 1 12.582500000000005 44.9375 28.760000000000005 0 0 0
767 2 10.785000000000004 43.14 32.355000000000004 0 0 0
768 1 10.785000000000004 44.9375 34.1525 0 0 0
769 2 12.582500000000005 43.14 34.1525 0 0 0
770 5 12.582500000000005 44.9375 32.355000000000004 0 0 0
771 5 10.785000000000004 43.14 35.95 0 0 0
772 5 10.785000000000004 44.9375 37.7475 0 0 0
773 4 12.582500000000005 43.14 37.7475 0 0 0
774 5 12.582500000000005 44.9375 35.95 0 0 0
775 4 10.785000000000004 43.14 39.545 0 0 0
776 4 10.785000000000004 44.9375 41.3425 0 0 0
777 4 12.582500000000005 43.14 41.3425 0 0 0
778 4 12.582500000000005 44.9375 39.545 0 0 0
779 4 10.785000000000004 43.14 43.14 0 0 0
780 2 10.785000000000004 44.9375 44.9375 0 0 0
781 1 12.582500000000005 43.14 44.9375 0 0 0
782 2 12.582500000000005 44.9375 43.14 0 0 0
783 4 10.785000000000004 43.14 46.73500000000001 0 0 0
786 4 12.582500000000005 44.9375 46.73500000000001 0 0 0
813 1 12.582500000000005 46.73500000000001 19.7725 0 0 0
814 4 10.785000000000004 46.73500000000001 21.570000000000004 0 0 0
816 1 12.582500000000005 46.73500000000001 23.367500000000003 0 0 0
818 2 10.785000000000004 46.73500000000001 25.165000000000003 0 0 0
820 3 12.582500000000005 46.73500000000001 26.962500000000002 0 0 0
822 4 10.785000000000004 46.73500000000001 28.760000000000005 0 0 0
824 1 12.582500000000005 46.73500000000001 30.557500000000005 0 0 0
826 5 10.785000000000004 46.73500000000001 32.355000000000004 0 0 0
828 2 12.582500000000005 46.73500000000001 34.1525 0 0 0
830 5 10.785000000000004 46.73500000000001 35.95 0 0 0
832 2 12.582500000000005 46.73500000000001 37.7475 0 0 0
834 2 10.785000000000004 46.73500000000001 39.545 0 0 0
836 2 12.582500000000005 46.73500000000001 41.3425 0 0 0
838 1 10.785000000000004 46.73500000000001 43.14 0 0 0
840 5 12.582500000000005 46.73500000000001 44.9375 0 0 0
842 4 10.785000000000004 46.73500000000001 46.73500000000001 0 0 0
1141 1 16.177500000000002 16.177500000000002 35.95 0 0 0
1142 2 16.177500000000002 16.177500000000002 39.545 0 0 0
1143 4 14.380000000000003 16.177500000000002 44.9375 0 0 0
1144 4 16.177500000000002 14.380000000000003 44.9375 0 0 0
1145 2 16.177500000000002 16.177500000000002 43.14 0 0 0
1146 5 14.380000000000003 14.380000000000003 46.73500000000001 0 0 0
1149 2 16.177500000000002 16.177500000000002 46.73500000000001 0 0 0
1153 5 16.177500000000002 19.7725 28.760000000000005 0 0 0
1154 3 16.177500000000002 17.975 34.1525 0 0 0
1155 3 16.177500000000002 19.7725 32.355000000000004 0 0 0
1156 3 14.380000000000003 19.7725 37.7475 0 0 0
1157 2 16.177500000000002 17.975 37.7475 0 0 0
1158 2 16.177500000000002 19.7725 35.95 0 0 0
1159 5 14.380000000000003 17.975 39.545 0 0 0
1160 4 14.380000000000003 19.7725 41.3425 0 0 0
1161 2 16.177500000000002 17.975 41.3425 0 0 0
1162 5 16.177500000000002 19.7725 39.545 0 0 0
1163 5 14.380000000000003 17.975 43.14 0 0 0
1164 5 14.380000000000003 19.7725 44.9375 0 0 0
1165 1 16.177500000000002 17.975 44.9375 0 0 0
1166 1 16.177500000000002 19.7725 43.14 0 0 0
1167 2 14.380000000000003 17.975 46.73500000000001 0 0 0
1170 2 16.177500000000002 19.7725 46.73500000000001 0 0 0
1183 4 16.177500000000002 21.570000000000004 26.962500000000002 0 0 0
1184 4 16.177500000000002 23.367500000000003 25.165000000000003 0 0 0
1185 3 14.380000000000003 23.367500000000003 30.557500000000005 0 0 0
1186 5 16.177500000000002 21.570000000000004 30.557500000000005 0 0 0
1187 5 16.177500000000002 23.367500000000003 28.760000000000005 0 0 0
1188 3 14.380000000000003 21.570000000000004 32.355000000000004 0 0 0
1189 2 14.380000000000003 23.367500000000003 34.1525 0 0 0
1190 2 16.177500000000002 21.570000000000004 34.1525 0 0 0
1191 1 16.177500000000002 23.367500000000003 32.355000000000004 0 0 0
1192 2 14.380000000000003 21.570000000000004 35.95 0 0 0
1193 1 14.380000000000003 23.367500000000003 37.7475 0 0 0
1194 3 16.177500000000002 21.570000000000004 37.7475 0 0 0
1195 3 16.177500000000002 23.367500000000003 35.95 0 0 0
1196 1 14.380000000000003 21.570000000000004 39.545 0 0 0
1197 4 14.380000000000003 23.367500000000003 41.3425 0 0 0
1198 4 16.177500000000002 21.570000000000004 41.3425 0 0 0
1199 1 16.177500000000002 23.367500000000003 39.545 0 0 0
1200 3 14.380000000000003 21.570000000000004 43.14 0 0 0
1201 5 14.380000000000003 23.367500000000003 44.9375 0 0 0
1202 3 16.177500000000002 21.570000000000004 44.9375 0 0 0
1203 3 16.177500000000002 23.367500000000003 43.14 0 0 0
1204 2 14.380000000000003 21.570000000000004 46.73500000000001 0 0 0
1207 5 16.177500000000002 23.367500000000003 46.73500000000001 0 0 0
1227 1 16.177500000000002 25.165000000000003 23.367500000000003 0 0 0
1228 4 16.177500000000002 26.962500000000002 21.570000000000004 0 0 0
1229 5 14.380000000000003 25.165000000000003 25.165000000000003 0 0 0
1230 1 14.380000000000003 26.962500000000002 26.962500000000002 0 0 0
1231 5 16.177500000000002 25.165000000000003 26.962500000000002 0 0 0
1232 2 16.177500000000002 26.962500000000002 25.165000000000003 0 0 0
1233 4 14.380000000000003 25.165000000000003 28.760000000000005 0 0 0
1234 2 14.380000000000003 26.962500000000002 30.557500000000005 0 0 0
1235 4 16.177500000000002 25.165000000000003 30.557500000000005 0 0 0
1236 3 16.177500000000002 26.962500000000002 28.760000000000005 0 0 0
1237 5 14.380000000000003 25.165000000000003 32.355000000000004 0 0 0
1238 2 14.380000000000003 26.962500000000002 34.1525 0 0 0
1239 1 16.177500000000002 25.165000000000003 34.1525 0 0 0
1240 4 16.177500000000002 26.962500000000002 32.355000000000004 0 0 0
1241 4 14.380000000000003 25.165000000000003 35.95 0 0 0
1242 3 14.380000000000003 26.962500000000002 37.7475 0 0 0
1243 3 16.177500000000002 25.165000000000003 37.7475 0 0 0
1244 2 16.177500000000002 26.962500000000002 35.95 0 0 0
1245 2 14.380000000000003 25.165000000000003 39.545 0 0 0
1246 3 14.380000000000003 26.962500000000002 41.3425 0 0 0
1247 4 16.177500000000002 25.165000000000003 41.3425 0 0 0
1248 5 16.177500000000002 26.962500000000002 39.545 0 0 0
1249 5 14.380000000000003 25.165000000000003 43.14 0 0 0
1250 3 14.380000000000003 26.962500000000002 44.9375 0 0 0
1251 1 16.177500000000002 25.165000000000003 44.9375 0 0 0
1252 3 16.177500000000002 26.962500000000002 43.14 0 0 0
1253 5 14.380000000000003 25.165000000000003 46.73500000000001 0 0 0
1256 5 16.177500000000002 26.962500000000002 46.73500000000001 0 0 0
1281 3 16.177500000000002 28.760000000000005 19.7725 0 0 0
1282 5 14.380000000000003 30.557500000000005 23.367500000000003 0 0 0
1283 1 16.177500000000002 28.760000000000005 23.367500000000003 0 0 0
1284 3 16.177500000000002 30.557500000000005 21.570000000000004 0 0 0
1285 1 14.380000000000003 28.760000000000005 25.165000000000003 0 0 0
1286 5 14.380000000000003 30.557500000000005 26.962500000000002 0 0 0
1287 1 16.177500000000002 28.760000000000005 26.962500000000002 0 0 0
1288 3 16.177500000000002 30.557500000000005 25.165000000000003 0 0 0
1289 4 14.380000000000003 28.760000000000005 28.760000000000005 0 0 0
1290 5 14.380000000000003 30.557500000000005 30.557500000000005 0 0 0
1291 3 16.177500000000002 28.760000000000005 30.557500000000005 0 0 0
1292 4 16.177500000000002 30.557500000000005 28.760000000000005 0 0 0
1293 5 14.380000000000003 28.760000000000005 32.355000000000004 0 0 0
1294 5 14.380000000000003 30.557500000000005 34.1525 0 0 0
1295 3 16.177500000000002 28.760000000000005 34.1525 0 0 0
1296 4 16.177500000000002 30.557500000000005 32.355000000000004 0 0 0
1297 5 14.380000000000003 28.760000000000005 35.95 0 0 0
1298 5 14.380000000000003 30.557500000000005 37.7475 0 0 0
1299 1 16.177500000000002 28.760000000000005 37.7475 0 0 0
1300 2 16.177500000000002 30.557500000000005 35.95 0 0 0
1301 4 14.380000000000003 28.760000000000005 39.545 0 0 0
1302 3 14.380000000000003 30.557500000000005 41.3425 0 0 0
1303 5 16.177500000000002 28.760000000000005 41.3425 0 0 0
1304 1 16.177500000000002 30.557500000000005 39.545 0 0 0
1305 5 14.380000000000003 28.760000000000005 43.14 0 0 0
1306 4 14.380000000000003 30.557500000000005 44.9375 0 0 0
1307 3 16.177500000000002 28.760000000000005 44.9375 0 0 0
1308 1 16.177500000000002 30.557500000000005 43.14 0 0 0
1309 4 14.380000000000003 28.760000000000005 46.73500000000001 0 0 0
1312 3 16.177500000000002 30.557500000000005 46.73500000000001 0 0 0
1339 3 16.177500000000002 32.355000000000004 19.7725 0 0 0
1340 1 16.177500000000002 34.1525 17.975 0 0 0
1341 1 14.380000000000003 32.355000000000004 21.570000000000004 0 0 0
1342 4 14.380000000000003 34.1525 23.367500000000003 0 0 0
1343 3 16.177500000000002 32.355000000000004 23.367500000000003 0 0 0
1344 5 16.177500000000002 34.1525 21.570000000000004 0 0 0
1345 4 14.380000000000003 32.355000000000004 25.165000000000003 0 0 0
1346 1 14.380000000000003 34.1525 26.962500000000002 0 0 0
1347 2 16.177500000000002 32.355000000000004 26.962500000000002 0 0 0
1348 5 16.177500000000002 34.1525 25.165000000000003 0 0 0
1349 2 14.380000000000003 32.355000000000004 28.760000000000005 0 0 0
1350 2 14.380000000000003 34.1525 30.557500000000005 0 0 0
1351 2 16.177500000000002 32.355000000000004 30.557500000000005 0 0 0
1352 2 16.177500000000002 34.1525 28.760000000000005 0 0 0
1353 1 14.380000000000003 32.355000000000004 32.355000000000004 0 0 0
1354 5 14.380000000000003 34.1525 34.1525 0 0 0
1355 3 16.177500000000002 32.355000000000004 34.1525 0 0 0
1356 5 16.177500000000002 34.1525 32.355000000000004 0 0 0
1357 2 14.380000000000003 32.355000000000004 35.95 0 0 0
1358 5 14.380000000000003 34.1525 37.7475 0 0 0
1359 5 16.177500000000002 32.355000000000004 37.7475 0 0 0
1360 4 16.177500000000002 34.1525 35.95 0 0 0
1361 3 14.380000000000003 32.355000000000004 39.545 0 0 0
1362 2 14.380000000000003 34.1525 41.3425 0 0 0
1363 5 16.177500000000002 32.355000000000004 41.3425 0 0 0
1364 1 16.177500000000002 34.1525 39.545 0 0 0
1365 5 14.380000000000003 32.355000000000004 43.14 0 0 0
1366 5 14.380000000000003 34.1525 44.9375 0 0 0
1367 1 16.177500000000002 32.355000000000004 44.9375 0 0 0
1368 3 16.177500000000002 34.1525 43.14 0 0 0
1369 2 14.380000000000003 32.355000000000004 46.73500000000001 0 0 0
1372 5 16.177500000000002 34.1525 46.73500000000001 0 0 0
1401 4 16.177500000000002 35.95 16.177500000000002 0 0 0
1402 1 14.380000000000003 37.7475 19.7725 0 0 0
1403 2 16.177500000000002 35.95 19.7725 0 0 0
1404 2 16.177500000000002 37.7475 17.975 0 0 0
1405 5 14.380000000000003 35.95 21.570000000000004 0 0 0
1406 5 14.380000000000003 37.7475 23.367500000000003 0 0 0
1407 3 16.177500000000002 35.95 23.367500000000003 0 0 0
1408 4 16.177500000000002 37.7475 21.570000000000004 0 0 0
1409 5 14.380000000000003 35.95 25.165000000000003 0 0 0
1410 2 14.380000000000003 37.7475 26.962500000000002 0 0 0
1411 1 16.177500000000002 35.95 26.962500000000002 0 0 0
1412 3 16.177500000000002 37.7475 25.165000000000003 0 0 0
1413 5 14.380000000000003 35.95 28.760000000000005 0 0 0
1414 3 14.380000000000003 37.7475 30.557500000000005 0 0 0
1415 1 16.177500000000002 35.95 30.557500000000005 0 0 0
1416 5 16.177500000000002 37.7475 28.760000000000005 0 0 0
1417 3 14.380000000000003 35.95 32.355000000000004 0 0 0
1418 3 14.380000000000003 37.7475 34.1525 0 0 0
1419 2 16.177500000000002 35.95 34.1525 0 0 0
1420 4 16.177500000000002 37.7475 32.355000000000004 0 0 0
1421 4 14.380000000000003 35.95 35.95 0 0 0
1422 4 14.380000000000003 37.7475 37.7475 0 0 0
1423 4 16.177500000000002 35.95 37.7475 0 0 0
1424 2 16.177500000000002 37.7475 35.95 0 0 0
1425 3 14.380000000000003 35.95 39.545 0 0 0
1426 4 14.380000000000003 37.7475 41.3425 0 0 0
1427 2 16.177500000000002 35.95 41.3425 0 0 0
1428 4 16.177500000000002 37.7475 39.545 0 0 0
1429 1 14.380000000000003 35.95 43.14 0 0 0
1430 2 14.380000000000003 37.7475 44.9375 0 0 0
1431 4 16.177500000000002 35.95 44.9375 0 0 0
1432 2 16.177500000000002 37.7475 43.14 0 0 0
1433 3 14.380000000000003 35.95 46.73500000000001 0 0 0
1436 2 16.177500000000002 37.7475 46.73500000000001 0 0 0
1467 1 16.177500000000002 39.545 16.177500000000002 0 0 0
1468 2 14.380000000000003 39.545 17.975 0 0 0
1469 5 14.380000000000003 41.3425 19.7725 0 0 0
1470 5 16.177500000000002 39.545 19.7725 0 0 0
1471 1 16.177500000000002 41.3425 17.975 0 0 0
1472 3 14.380000000000003 39.545 21.570000000000004 0 0 0
1473 1 14.380000000000003 41.3425 23.367500000000003 0 0 0
1474 5 16.177500000000002 39.545 23.367500000000003 0 0 0
1475 5 16.177500000000002 41.3425 21.570000000000004 0 0 0
1476 5 14.380000000000003 39.545 25.165000000000003 0 0 0
1477 2 14.380000000000003 41.3425 26.962500000000002 0 0 0
1478 5 16.177500000000002 39.545 26.962500000000002 0 0 0
1479 2 16.177500000000002 41.3425 25.165000000000003 0 0 0
1480 1 14.380000000000003 39.545 28.760000000000005 0 0 0
1481 3 14.380000000000003 41.3425 30.557500000000005 0 0 0
1482 1 16.177500000000002 39.545 30.557500000000005 0 0 0
1483 5 16.177500000000002 41.3425 28.760000000000005 0 0 0
1484 5 14.380000000000003 39.545 32.355000000000004 0 0 0
1485 3 14.380000000000003 41.3425 34.1525 0 0 0
1486 5 16.177500000000002 39.545 34.1525 0 0 0
1487 2 16.177500000000002 41.3425 32.355000000000004 0 0 0
1488 1 14.380000000000003 39.545 35.95 0 0 0
1489 5 14.380000000000003 41.3425 37.7475 0 0 0
1490 5 16.177500000000002 39.545 37.7475 0 0 0
1491 5 16.177500000000002 41.3425 35.95 0 0 0
1492 4 14.380000000000003 39.545 39.545 0 0 0
1493 3 14.380000000000003 41.3425 41.3425 0 0 0
1494 1 16.177500000000002 39.545 41.3425 0 0 0
1495 5 16.177500000000002 41.3425 39.545 0 0 0
1496 3 14.380000000000003 39.545 43.14 0 0 0
1497 5 14.380000000000003 41.3425 44.9375 0 0 0
1498 3 16.177500000000002 39.545 44.9375 0 0 0
1499 4 16.177500000000002 41.3425 43.14 0 0 0
1500 4 14.380000000000003 39.545 46.73500000000001 0 0 0
1503 5 16.177500000000002 41.3425 46.73500000000001 0 0 0
1535 2 14.380000000000003 44.9375 16.177500000000002 0 0 0
1536 1 16.177500000000002 43.14 16.177500000000002 0 0 0
1537 2 16.177500000000002 44.9375 14.380000000000003 0 0 0
1538 4 14.380000000000003 43.14 17.975 0 0 0
1539 1 14.380000000000003 44.9375 19.7725 0 0 0
1540 2 16.177500000000002 43.14 19.7725 0 0 0
1541 5 16.177500000000002 44.9375 17.975 0 0 0
1542 3 14.380000000000003 43.14 21.570000000000004 0 0 0
1543 5 14.380000000000003 44.9375 23.367500000000003 0 0 0
1544 2 16.177500000000002 43.14 23.367500000000003 0 0 0
1545 3 16.177500000000002 44.9375 21.570000000000004 0 0 0
1546 2 14.380000000000003 43.14 25.165000000000003 0 0 0
1547 3 14.380000000000003 44.9375 26.962500000000002 0 0 0
1548 1 16.177500000000002 43.14 26.962500000000002 0 0 0