model_files/NiCoCrFeMn/NiCoCrFeMn_30000/NiCoCrFeMn_421/NiCoCrFeMn_421_fcc_30423_temp.data (written by ASE) 

30423 	 atoms 
5  atom types
0.0                      95  xlo xhi
0.0                      95  ylo yhi
0.0                      95  zlo zhi


Atoms 

     1   1      1.7974999999999997      41.342500000000001      43.140000000000001
     2   1      1.7974999999999997      41.342500000000001      46.735000000000007
     3   1      1.7974999999999997      41.342500000000001      50.330000000000005
     4   1      1.7974999999999997      43.140000000000001      41.342500000000001
     5   1                       0                 44.9375                 44.9375
     6   1      1.7974999999999997      43.140000000000001                 44.9375
     7   1      1.7974999999999997                 44.9375      43.140000000000001
     8   1                       0      43.140000000000001      46.735000000000007
     9   1                       0                 44.9375      48.532500000000006
    10   1      1.7974999999999997      43.140000000000001      48.532500000000006
    11   1      1.7974999999999997                 44.9375      46.735000000000007
    12   1      1.7974999999999997      43.140000000000001      52.127500000000005
    13   1      1.7974999999999997                 44.9375      50.330000000000005
    14   1      1.7974999999999997      46.735000000000007      41.342500000000001
    15   1                       0      46.735000000000007      43.140000000000001
    16   1                       0      48.532500000000006                 44.9375
    17   1      1.7974999999999997      46.735000000000007                 44.9375
    18   1      1.7974999999999997      48.532500000000006      43.140000000000001
    19   1                       0      46.735000000000007      46.735000000000007
    20   1                       0      48.532500000000006      48.532500000000006
    21   1      1.7974999999999997      46.735000000000007      48.532500000000006
    22   1      1.7974999999999997      48.532500000000006      46.735000000000007
    23   1                       0      46.735000000000007      50.330000000000005
    24   1      1.7974999999999997      46.735000000000007      52.127500000000005
    25   1      1.7974999999999997      48.532500000000006      50.330000000000005
    26   1      1.7974999999999997      50.330000000000005      41.342500000000001
    27   1      1.7974999999999997      50.330000000000005                 44.9375
    28   1      1.7974999999999997      52.127500000000005      43.140000000000001
    29   1                       0      50.330000000000005      46.735000000000007
    30   1      1.7974999999999997      50.330000000000005      48.532500000000006
    31   1      1.7974999999999997      52.127500000000005      46.735000000000007
    32   1      1.7974999999999997      50.330000000000005      52.127500000000005
    33   1      1.7974999999999997      52.127500000000005      50.330000000000005
    34   1      5.3925000000000054      34.152500000000003      43.140000000000001
    35   1      5.3925000000000054      34.152500000000003      46.735000000000007
    36   1      5.3925000000000054      34.152500000000003      50.330000000000005
    37   1      5.3925000000000054      35.950000000000003      41.342500000000001
    38   1      5.3925000000000054      37.747500000000002      39.545000000000002
    39   1      3.5949999999999993      37.747500000000002                 44.9375
    40   1      5.3925000000000054      35.950000000000003                 44.9375
    41   1      5.3925000000000054      37.747500000000002      43.140000000000001
    42   1      3.5949999999999993      35.950000000000003      46.735000000000007
    43   1      3.5949999999999993      37.747500000000002      48.532500000000006
    44   1      5.3925000000000054      35.950000000000003      48.532500000000006
    45   1      5.3925000000000054      37.747500000000002      46.735000000000007
    46   1      5.3925000000000054      35.950000000000003      52.127500000000005
    47   1      5.3925000000000054      37.747500000000002      50.330000000000005
    48   1      5.3925000000000054      37.747500000000002      53.925000000000004
    49   1      5.3925000000000054      39.545000000000002      37.747500000000002
    50   1      5.3925000000000054      41.342500000000001      35.950000000000003
    51   1      3.5949999999999993      39.545000000000002      39.545000000000002
    52   1      3.5949999999999993      41.342500000000001      41.342500000000001
    53   1      5.3925000000000054      39.545000000000002      41.342500000000001
    54   1      5.3925000000000054      41.342500000000001      39.545000000000002
    55   1      3.5949999999999993      39.545000000000002      43.140000000000001
    56   1      3.5949999999999993      41.342500000000001                 44.9375
    57   1      5.3925000000000054      39.545000000000002                 44.9375
    58   1      5.3925000000000054      41.342500000000001      43.140000000000001
    59   1      3.5949999999999993      39.545000000000002      46.735000000000007
    60   1      3.5949999999999993      41.342500000000001      48.532500000000006
    61   1      5.3925000000000054      39.545000000000002      48.532500000000006
    62   1      5.3925000000000054      41.342500000000001      46.735000000000007
    63   1      3.5949999999999993      39.545000000000002      50.330000000000005
    64   1      3.5949999999999993      41.342500000000001      52.127500000000005
    65   1      5.3925000000000054      39.545000000000002      52.127500000000005
    66   1      5.3925000000000054      41.342500000000001      50.330000000000005
    67   1      3.5949999999999993      39.545000000000002      53.925000000000004
    68   1      5.3925000000000054      39.545000000000002      55.722500000000004
    69   1      5.3925000000000054      41.342500000000001      53.925000000000004
    70   1      5.3925000000000054      41.342500000000001       57.52000000000001
    71   1      5.3925000000000054      43.140000000000001      34.152500000000003
    72   1      3.5949999999999993                 44.9375      37.747500000000002
    73   1      5.3925000000000054      43.140000000000001      37.747500000000002
    74   1      5.3925000000000054                 44.9375      35.950000000000003
    75   1      3.5949999999999993      43.140000000000001      39.545000000000002
    76   1      3.5949999999999993                 44.9375      41.342500000000001
    77   1      5.3925000000000054      43.140000000000001      41.342500000000001
    78   1      5.3925000000000054                 44.9375      39.545000000000002
    79   1      3.5949999999999993      43.140000000000001      43.140000000000001
    80   1      3.5949999999999993                 44.9375                 44.9375
    81   1      5.3925000000000054      43.140000000000001                 44.9375
    82   1      5.3925000000000054                 44.9375      43.140000000000001
    83   1      3.5949999999999993      43.140000000000001      46.735000000000007
    84   1      3.5949999999999993                 44.9375      48.532500000000006
    85   1      5.3925000000000054      43.140000000000001      48.532500000000006
    86   1      5.3925000000000054                 44.9375      46.735000000000007
    87   1      3.5949999999999993      43.140000000000001      50.330000000000005
    88   1      3.5949999999999993                 44.9375      52.127500000000005
    89   1      5.3925000000000054      43.140000000000001      52.127500000000005
    90   1      5.3925000000000054                 44.9375      50.330000000000005
    91   1      3.5949999999999993      43.140000000000001      53.925000000000004
    92   1      3.5949999999999993                 44.9375      55.722500000000004
    93   1      5.3925000000000054      43.140000000000001      55.722500000000004
    94   1      5.3925000000000054                 44.9375      53.925000000000004
    95   1      5.3925000000000054      43.140000000000001      59.317499999999995
    96   1      5.3925000000000054                 44.9375       57.52000000000001
    97   1      5.3925000000000054      46.735000000000007      34.152500000000003
    98   1      3.5949999999999993      46.735000000000007      35.950000000000003
    99   1      3.5949999999999993      48.532500000000006      37.747500000000002
   100   1      5.3925000000000054      46.735000000000007      37.747500000000002
   101   1      5.3925000000000054      48.532500000000006      35.950000000000003
   102   1      3.5949999999999993      46.735000000000007      39.545000000000002
   103   1      3.5949999999999993      48.532500000000006      41.342500000000001
   104   1      5.3925000000000054      46.735000000000007      41.342500000000001
   105   1      5.3925000000000054      48.532500000000006      39.545000000000002
   106   1      3.5949999999999993      46.735000000000007      43.140000000000001
   107   1      3.5949999999999993      48.532500000000006                 44.9375
   108   1      5.3925000000000054      46.735000000000007                 44.9375
   109   1      5.3925000000000054      48.532500000000006      43.140000000000001
   110   1      3.5949999999999993      46.735000000000007      46.735000000000007
   111   1      3.5949999999999993      48.532500000000006      48.532500000000006
   112   1      5.3925000000000054      46.735000000000007      48.532500000000006
   113   1      5.3925000000000054      48.532500000000006      46.735000000000007
   114   1      3.5949999999999993      46.735000000000007      50.330000000000005
   115   1      3.5949999999999993      48.532500000000006      52.127500000000005
   116   1      5.3925000000000054      46.735000000000007      52.127500000000005
   117   1      5.3925000000000054      48.532500000000006      50.330000000000005
   118   1      3.5949999999999993      46.735000000000007      53.925000000000004
   119   1      3.5949999999999993      48.532500000000006      55.722500000000004
   120   1      5.3925000000000054      46.735000000000007      55.722500000000004
   121   1      5.3925000000000054      48.532500000000006      53.925000000000004
   122   1      3.5949999999999993      46.735000000000007       57.52000000000001
   123   1      5.3925000000000054      46.735000000000007      59.317499999999995
   124   1      5.3925000000000054      48.532500000000006       57.52000000000001
   125   1      5.3925000000000054      50.330000000000005      34.152500000000003
   126   1      5.3925000000000054      50.330000000000005      37.747500000000002
   127   1      5.3925000000000054      52.127500000000005      35.950000000000003
   128   1      3.5949999999999993      50.330000000000005      39.545000000000002
   129   1      3.5949999999999993      52.127500000000005      41.342500000000001
   130   1      5.3925000000000054      50.330000000000005      41.342500000000001
   131   1      5.3925000000000054      52.127500000000005      39.545000000000002
   132   1      3.5949999999999993      50.330000000000005      43.140000000000001
   133   1      3.5949999999999993      52.127500000000005                 44.9375
   134   1      5.3925000000000054      50.330000000000005                 44.9375
   135   1      5.3925000000000054      52.127500000000005      43.140000000000001
   136   1      3.5949999999999993      50.330000000000005      46.735000000000007
   137   1      3.5949999999999993      52.127500000000005      48.532500000000006
   138   1      5.3925000000000054      50.330000000000005      48.532500000000006
   139   1      5.3925000000000054      52.127500000000005      46.735000000000007
   140   1      3.5949999999999993      50.330000000000005      50.330000000000005
   141   1      3.5949999999999993      52.127500000000005      52.127500000000005
   142   1      5.3925000000000054      50.330000000000005      52.127500000000005
   143   1      5.3925000000000054      52.127500000000005      50.330000000000005
   144   1      3.5949999999999993      50.330000000000005      53.925000000000004
   145   1      5.3925000000000054      50.330000000000005      55.722500000000004
   146   1      5.3925000000000054      52.127500000000005      53.925000000000004
   147   1      5.3925000000000054      50.330000000000005      59.317499999999995
   148   1      5.3925000000000054      52.127500000000005       57.52000000000001
   149   1      5.3925000000000054      53.925000000000004      37.747500000000002
   150   1      3.5949999999999993      53.925000000000004      39.545000000000002
   151   1      5.3925000000000054      53.925000000000004      41.342500000000001
   152   1      5.3925000000000054      55.722500000000004      39.545000000000002
   153   1      3.5949999999999993      53.925000000000004      43.140000000000001
   154   1      3.5949999999999993      55.722500000000004                 44.9375
   155   1      5.3925000000000054      53.925000000000004                 44.9375
   156   1      5.3925000000000054      55.722500000000004      43.140000000000001
   157   1      3.5949999999999993      53.925000000000004      46.735000000000007
   158   1      3.5949999999999993      55.722500000000004      48.532500000000006
   159   1      5.3925000000000054      53.925000000000004      48.532500000000006
   160   1      5.3925000000000054      55.722500000000004      46.735000000000007
   161   1      3.5949999999999993      53.925000000000004      50.330000000000005
   162   1      5.3925000000000054      53.925000000000004      52.127500000000005
   163   1      5.3925000000000054      55.722500000000004      50.330000000000005
   164   1      3.5949999999999993      53.925000000000004      53.925000000000004
   165   1      5.3925000000000054      53.925000000000004      55.722500000000004
   166   1      5.3925000000000054      55.722500000000004      53.925000000000004
   167   1      5.3925000000000054       57.52000000000001      41.342500000000001
   168   1      5.3925000000000054       57.52000000000001                 44.9375
   169   1      5.3925000000000054      59.317499999999995      43.140000000000001
   170   1      3.5949999999999993       57.52000000000001      46.735000000000007
   171   1      5.3925000000000054       57.52000000000001      48.532500000000006
   172   1      5.3925000000000054      59.317499999999995      46.735000000000007
   173   1      5.3925000000000054       57.52000000000001      52.127500000000005
   174   1      5.3925000000000054      59.317499999999995      50.330000000000005
   175   1      8.9875000000000043      26.962500000000002      43.140000000000001
   176   1      8.9875000000000043      26.962500000000002      46.735000000000007
   177   1      8.9875000000000043      26.962500000000002      50.330000000000005
   178   1      8.9875000000000043      30.557500000000005      35.950000000000003
   179   1      8.9875000000000043      28.760000000000005      41.342500000000001
   180   1      8.9875000000000043      30.557500000000005      39.545000000000002
   181   1      7.1900000000000048      30.557500000000005                 44.9375
   182   1      8.9875000000000043      28.760000000000005                 44.9375
   183   1      8.9875000000000043      30.557500000000005      43.140000000000001
   184   1      7.1900000000000048      28.760000000000005      46.735000000000007
   185   1      7.1900000000000048      30.557500000000005      48.532500000000006
   186   1      8.9875000000000043      28.760000000000005      48.532500000000006
   187   1      8.9875000000000043      30.557500000000005      46.735000000000007
   188   1      8.9875000000000043      28.760000000000005      52.127500000000005
   189   1      8.9875000000000043      30.557500000000005      50.330000000000005
   190   1      8.9875000000000043      30.557500000000005      53.925000000000004
   191   1      8.9875000000000043      30.557500000000005       57.52000000000001
   192   1      8.9875000000000043      32.355000000000004      34.152500000000003
   193   1      8.9875000000000043      34.152500000000003      32.355000000000004
   194   1      7.1900000000000048      34.152500000000003      37.747500000000002
   195   1      8.9875000000000043      32.355000000000004      37.747500000000002
   196   1      8.9875000000000043      34.152500000000003      35.950000000000003
   197   1      7.1900000000000048      32.355000000000004      39.545000000000002
   198   1      7.1900000000000048      34.152500000000003      41.342500000000001
   199   1      8.9875000000000043      32.355000000000004      41.342500000000001
   200   1      8.9875000000000043      34.152500000000003      39.545000000000002
   201   1      7.1900000000000048      32.355000000000004      43.140000000000001
   202   1      7.1900000000000048      34.152500000000003                 44.9375
   203   1      8.9875000000000043      32.355000000000004                 44.9375
   204   1      8.9875000000000043      34.152500000000003      43.140000000000001
   205   1      7.1900000000000048      32.355000000000004      46.735000000000007
   206   1      7.1900000000000048      34.152500000000003      48.532500000000006
   207   1      8.9875000000000043      32.355000000000004      48.532500000000006
   208   1      8.9875000000000043      34.152500000000003      46.735000000000007
   209   1      7.1900000000000048      32.355000000000004      50.330000000000005
   210   1      7.1900000000000048      34.152500000000003      52.127500000000005
   211   1      8.9875000000000043      32.355000000000004      52.127500000000005
   212   1      8.9875000000000043      34.152500000000003      50.330000000000005
   213   1      7.1900000000000048      32.355000000000004      53.925000000000004
   214   1      7.1900000000000048      34.152500000000003      55.722500000000004
   215   1      8.9875000000000043      32.355000000000004      55.722500000000004
   216   1      8.9875000000000043      34.152500000000003      53.925000000000004
   217   1      8.9875000000000043      32.355000000000004      59.317499999999995
   218   1      8.9875000000000043      34.152500000000003       57.52000000000001
   219   1      8.9875000000000043      34.152500000000003      61.115000000000009
   220   1      8.9875000000000043      35.950000000000003      30.557500000000005
   221   1      7.1900000000000048      37.747500000000002      34.152500000000003
   222   1      8.9875000000000043      35.950000000000003      34.152500000000003
   223   1      8.9875000000000043      37.747500000000002      32.355000000000004
   224   1      7.1900000000000048      35.950000000000003      35.950000000000003
   225   1      7.1900000000000048      37.747500000000002      37.747500000000002
   226   1      8.9875000000000043      35.950000000000003      37.747500000000002
   227   1      8.9875000000000043      37.747500000000002      35.950000000000003
   228   1      7.1900000000000048      35.950000000000003      39.545000000000002
   229   1      7.1900000000000048      37.747500000000002      41.342500000000001
   230   1      8.9875000000000043      35.950000000000003      41.342500000000001
   231   1      8.9875000000000043      37.747500000000002      39.545000000000002
   232   1      7.1900000000000048      35.950000000000003      43.140000000000001
   233   1      7.1900000000000048      37.747500000000002                 44.9375
   234   1      8.9875000000000043      35.950000000000003                 44.9375
   235   1      8.9875000000000043      37.747500000000002      43.140000000000001
   236   1      7.1900000000000048      35.950000000000003      46.735000000000007
   237   1      7.1900000000000048      37.747500000000002      48.532500000000006
   238   1      8.9875000000000043      35.950000000000003      48.532500000000006
   239   1      8.9875000000000043      37.747500000000002      46.735000000000007
   240   1      7.1900000000000048      35.950000000000003      50.330000000000005
   241   1      7.1900000000000048      37.747500000000002      52.127500000000005
   242   1      8.9875000000000043      35.950000000000003      52.127500000000005
   243   1      8.9875000000000043      37.747500000000002      50.330000000000005
   244   1      7.1900000000000048      35.950000000000003      53.925000000000004
   245   1      7.1900000000000048      37.747500000000002      55.722500000000004
   246   1      8.9875000000000043      35.950000000000003      55.722500000000004
   247   1      8.9875000000000043      37.747500000000002      53.925000000000004
   248   1      7.1900000000000048      35.950000000000003       57.52000000000001
   249   1      7.1900000000000048      37.747500000000002      59.317499999999995
   250   1      8.9875000000000043      35.950000000000003      59.317499999999995
   251   1      8.9875000000000043      37.747500000000002       57.52000000000001
   252   1      8.9875000000000043      35.950000000000003      62.912500000000009
   253   1      8.9875000000000043      37.747500000000002      61.115000000000009
   254   1      8.9875000000000043      39.545000000000002      30.557500000000005
   255   1      8.9875000000000043      41.342500000000001      28.760000000000005
   256   1      7.1900000000000048      39.545000000000002      32.355000000000004
   257   1      7.1900000000000048      41.342500000000001      34.152500000000003
   258   1      8.9875000000000043      39.545000000000002      34.152500000000003
   259   1      8.9875000000000043      41.342500000000001      32.355000000000004
   260   1      7.1900000000000048      39.545000000000002      35.950000000000003
   261   1      7.1900000000000048      41.342500000000001      37.747500000000002
   262   1      8.9875000000000043      39.545000000000002      37.747500000000002
   263   1      8.9875000000000043      41.342500000000001      35.950000000000003
   264   1      7.1900000000000048      39.545000000000002      39.545000000000002
   265   1      7.1900000000000048      41.342500000000001      41.342500000000001
   266   1      8.9875000000000043      39.545000000000002      41.342500000000001
   267   1      8.9875000000000043      41.342500000000001      39.545000000000002
   268   1      7.1900000000000048      39.545000000000002      43.140000000000001
   269   1      7.1900000000000048      41.342500000000001                 44.9375
   270   1      8.9875000000000043      39.545000000000002                 44.9375
   271   1      8.9875000000000043      41.342500000000001      43.140000000000001
   272   1      7.1900000000000048      39.545000000000002      46.735000000000007
   273   1      7.1900000000000048      41.342500000000001      48.532500000000006
   274   1      8.9875000000000043      39.545000000000002      48.532500000000006
   275   1      8.9875000000000043      41.342500000000001      46.735000000000007
   276   1      7.1900000000000048      39.545000000000002      50.330000000000005
   277   1      7.1900000000000048      41.342500000000001      52.127500000000005
   278   1      8.9875000000000043      39.545000000000002      52.127500000000005
   279   1      8.9875000000000043      41.342500000000001      50.330000000000005
   280   1      7.1900000000000048      39.545000000000002      53.925000000000004
   281   1      7.1900000000000048      41.342500000000001      55.722500000000004
   282   1      8.9875000000000043      39.545000000000002      55.722500000000004
   283   1      8.9875000000000043      41.342500000000001      53.925000000000004
   284   1      7.1900000000000048      39.545000000000002       57.52000000000001
   285   1      7.1900000000000048      41.342500000000001      59.317499999999995
   286   1      8.9875000000000043      39.545000000000002      59.317499999999995
   287   1      8.9875000000000043      41.342500000000001       57.52000000000001
   288   1      7.1900000000000048      39.545000000000002      61.115000000000009
   289   1      8.9875000000000043      39.545000000000002      62.912500000000009
   290   1      8.9875000000000043      41.342500000000001      61.115000000000009
   291   1      8.9875000000000043      41.342500000000001      64.710000000000008
   292   1      8.9875000000000043      43.140000000000001      26.962500000000002
   293   1      7.1900000000000048                 44.9375      30.557500000000005
   294   1      8.9875000000000043      43.140000000000001      30.557500000000005
   295   1      8.9875000000000043                 44.9375      28.760000000000005
   296   1      7.1900000000000048      43.140000000000001      32.355000000000004
   297   1      7.1900000000000048                 44.9375      34.152500000000003
   298   1      8.9875000000000043      43.140000000000001      34.152500000000003
   299   1      8.9875000000000043                 44.9375      32.355000000000004
   300   1      7.1900000000000048      43.140000000000001      35.950000000000003
   301   1      7.1900000000000048                 44.9375      37.747500000000002
   302   1      8.9875000000000043      43.140000000000001      37.747500000000002
   303   1      8.9875000000000043                 44.9375      35.950000000000003
   304   1      7.1900000000000048      43.140000000000001      39.545000000000002
   305   1      7.1900000000000048                 44.9375      41.342500000000001
   306   1      8.9875000000000043      43.140000000000001      41.342500000000001
   307   1      8.9875000000000043                 44.9375      39.545000000000002
   308   1      7.1900000000000048      43.140000000000001      43.140000000000001
   309   1      7.1900000000000048                 44.9375                 44.9375
   310   1      8.9875000000000043      43.140000000000001                 44.9375
   311   1      8.9875000000000043                 44.9375      43.140000000000001
   312   1      7.1900000000000048      43.140000000000001      46.735000000000007
   313   1      7.1900000000000048                 44.9375      48.532500000000006
   314   1      8.9875000000000043      43.140000000000001      48.532500000000006
   315   1      8.9875000000000043                 44.9375      46.735000000000007
   316   1      7.1900000000000048      43.140000000000001      50.330000000000005
   317   1      7.1900000000000048                 44.9375      52.127500000000005
   318   1      8.9875000000000043      43.140000000000001      52.127500000000005
   319   1      8.9875000000000043                 44.9375      50.330000000000005
   320   1      7.1900000000000048      43.140000000000001      53.925000000000004
   321   1      7.1900000000000048                 44.9375      55.722500000000004
   322   1      8.9875000000000043      43.140000000000001      55.722500000000004
   323   1      8.9875000000000043                 44.9375      53.925000000000004
   324   1      7.1900000000000048      43.140000000000001       57.52000000000001
   325   1      7.1900000000000048                 44.9375      59.317499999999995
   326   1      8.9875000000000043      43.140000000000001      59.317499999999995
   327   1      8.9875000000000043                 44.9375       57.52000000000001
   328   1      7.1900000000000048      43.140000000000001      61.115000000000009
   329   1      7.1900000000000048                 44.9375      62.912500000000009
   330   1      8.9875000000000043      43.140000000000001      62.912500000000009
   331   1      8.9875000000000043                 44.9375      61.115000000000009
   332   1      8.9875000000000043      43.140000000000001      66.507500000000007
   333   1      8.9875000000000043                 44.9375      64.710000000000008
   334   1      8.9875000000000043      46.735000000000007      26.962500000000002
   335   1      7.1900000000000048      46.735000000000007      28.760000000000005
   336   1      7.1900000000000048      48.532500000000006      30.557500000000005
   337   1      8.9875000000000043      46.735000000000007      30.557500000000005
   338   1      8.9875000000000043      48.532500000000006      28.760000000000005
   339   1      7.1900000000000048      46.735000000000007      32.355000000000004
   340   1      7.1900000000000048      48.532500000000006      34.152500000000003
   341   1      8.9875000000000043      46.735000000000007      34.152500000000003
   342   1      8.9875000000000043      48.532500000000006      32.355000000000004
   343   1      7.1900000000000048      46.735000000000007      35.950000000000003
   344   1      7.1900000000000048      48.532500000000006      37.747500000000002
   345   1      8.9875000000000043      46.735000000000007      37.747500000000002
   346   1      8.9875000000000043      48.532500000000006      35.950000000000003
   347   1      7.1900000000000048      46.735000000000007      39.545000000000002
   348   1      7.1900000000000048      48.532500000000006      41.342500000000001
   349   1      8.9875000000000043      46.735000000000007      41.342500000000001
   350   1      8.9875000000000043      48.532500000000006      39.545000000000002
   351   1      7.1900000000000048      46.735000000000007      43.140000000000001
   352   1      7.1900000000000048      48.532500000000006                 44.9375
   353   1      8.9875000000000043      46.735000000000007                 44.9375
   354   1      8.9875000000000043      48.532500000000006      43.140000000000001
   355   1      7.1900000000000048      46.735000000000007      46.735000000000007
   356   1      7.1900000000000048      48.532500000000006      48.532500000000006
   357   1      8.9875000000000043      46.735000000000007      48.532500000000006
   358   1      8.9875000000000043      48.532500000000006      46.735000000000007