model_files/NiFeCrCoCu/NiFeCrCoCu_30000/NiFeCrCoCu_310/NiFeCrCoCu_310_fcc_30527_temp.data (written by ASE) 

30527 	 atoms 
5  atom types
0.0                      82  xlo xhi
0.0                      82  ylo yhi
0.0                      82  zlo zhi


Atoms 

     1   1                       0      37.484999999999999      39.269999999999996
     2   1                       0      39.269999999999996      37.484999999999999
     3   1                       0      37.484999999999999      42.840000000000003
     4   1                       0      39.269999999999996      41.055000000000007
     5   1                       0      39.269999999999996                  44.625
     6   1                       0      41.055000000000007      39.269999999999996
     7   1                       0      42.840000000000003      37.484999999999999
     8   1                       0      41.055000000000007      42.840000000000003
     9   1                       0      42.840000000000003      41.055000000000007
    10   1                       0      42.840000000000003                  44.625
    11   1                       0                  44.625      39.269999999999996
    12   1                       0                  44.625      42.840000000000003
    13   1      3.5700000000000003      26.775000000000002      28.560000000000002
    14   1      3.5700000000000003      28.560000000000002      26.775000000000002
    15   1      3.5700000000000003      26.775000000000002      32.129999999999995
    16   1      3.5700000000000003      28.560000000000002      30.344999999999999
    17   1      3.5700000000000003      26.775000000000002      35.699999999999996
    18   1      3.5700000000000003      28.560000000000002      33.914999999999999
    19   1      3.5700000000000003      26.775000000000002      39.269999999999996
    20   1      3.5700000000000003      28.560000000000002      37.484999999999999
    21   1      3.5700000000000003      26.775000000000002      42.840000000000003
    22   1      3.5700000000000003      28.560000000000002      41.055000000000007
    23   1      3.5700000000000003      26.775000000000002      46.409999999999997
    24   1      3.5700000000000003      28.560000000000002                  44.625
    25   1      3.5700000000000003      26.775000000000002      49.979999999999997
    26   1      3.5700000000000003      28.560000000000002                  48.195
    27   1      3.5700000000000003      26.775000000000002      53.550000000000004
    28   1      3.5700000000000003      28.560000000000002      51.765000000000008
    29   1      3.5700000000000003      28.560000000000002      55.335000000000001
    30   1      3.5700000000000003      30.344999999999999      28.560000000000002
    31   1      3.5700000000000003      32.129999999999995      26.775000000000002
    32   1      1.7850000000000039      32.129999999999995      32.129999999999995
    33   1      3.5700000000000003      30.344999999999999      32.129999999999995
    34   1      3.5700000000000003      32.129999999999995      30.344999999999999
    35   1      1.7850000000000039      32.129999999999995      35.699999999999996
    36   1      3.5700000000000003      30.344999999999999      35.699999999999996
    37   1      3.5700000000000003      32.129999999999995      33.914999999999999
    38   1      1.7850000000000039      32.129999999999995      39.269999999999996
    39   1      3.5700000000000003      30.344999999999999      39.269999999999996
    40   1      3.5700000000000003      32.129999999999995      37.484999999999999
    41   1      1.7850000000000039      32.129999999999995      42.840000000000003
    42   1      3.5700000000000003      30.344999999999999      42.840000000000003
    43   1      3.5700000000000003      32.129999999999995      41.055000000000007
    44   1      1.7850000000000039      32.129999999999995      46.409999999999997
    45   1      3.5700000000000003      30.344999999999999      46.409999999999997
    46   1      3.5700000000000003      32.129999999999995                  44.625
    47   1      1.7850000000000039      32.129999999999995      49.979999999999997
    48   1      3.5700000000000003      30.344999999999999      49.979999999999997
    49   1      3.5700000000000003      32.129999999999995                  48.195
    50   1      3.5700000000000003      30.344999999999999      53.550000000000004
    51   1      3.5700000000000003      32.129999999999995      51.765000000000008
    52   1      3.5700000000000003      32.129999999999995      55.335000000000001
    53   1      3.5700000000000003      33.914999999999999      28.560000000000002
    54   1      3.5700000000000003      35.699999999999996      26.775000000000002
    55   1      1.7850000000000039      35.699999999999996      32.129999999999995
    56   1      3.5700000000000003      33.914999999999999      32.129999999999995
    57   1      3.5700000000000003      35.699999999999996      30.344999999999999
    58   1      1.7850000000000039      33.914999999999999      33.914999999999999
    59   1      1.7850000000000039      35.699999999999996      35.699999999999996
    60   1      3.5700000000000003      33.914999999999999      35.699999999999996
    61   1      3.5700000000000003      35.699999999999996      33.914999999999999
    62   1      1.7850000000000039      33.914999999999999      37.484999999999999
    63   1      1.7850000000000039      35.699999999999996      39.269999999999996
    64   1      3.5700000000000003      33.914999999999999      39.269999999999996
    65   1      3.5700000000000003      35.699999999999996      37.484999999999999
    66   1      1.7850000000000039      33.914999999999999      41.055000000000007
    67   1      1.7850000000000039      35.699999999999996      42.840000000000003
    68   1      3.5700000000000003      33.914999999999999      42.840000000000003
    69   1      3.5700000000000003      35.699999999999996      41.055000000000007
    70   1      1.7850000000000039      33.914999999999999                  44.625
    71   1      1.7850000000000039      35.699999999999996      46.409999999999997
    72   1      3.5700000000000003      33.914999999999999      46.409999999999997
    73   1      3.5700000000000003      35.699999999999996                  44.625
    74   1      1.7850000000000039      33.914999999999999                  48.195
    75   1      1.7850000000000039      35.699999999999996      49.979999999999997
    76   1      3.5700000000000003      33.914999999999999      49.979999999999997
    77   1      3.5700000000000003      35.699999999999996                  48.195
    78   1      3.5700000000000003      33.914999999999999      53.550000000000004
    79   1      3.5700000000000003      35.699999999999996      51.765000000000008
    80   1      3.5700000000000003      35.699999999999996      55.335000000000001
    81   1      3.5700000000000003      37.484999999999999      28.560000000000002
    82   1      3.5700000000000003      39.269999999999996      26.775000000000002
    83   1      1.7850000000000039      39.269999999999996      32.129999999999995
    84   1      3.5700000000000003      37.484999999999999      32.129999999999995
    85   1      3.5700000000000003      39.269999999999996      30.344999999999999
    86   1      1.7850000000000039      37.484999999999999      33.914999999999999
    87   1      1.7850000000000039      39.269999999999996      35.699999999999996
    88   1      3.5700000000000003      37.484999999999999      35.699999999999996
    89   1      3.5700000000000003      39.269999999999996      33.914999999999999
    90   1      1.7850000000000039      37.484999999999999      37.484999999999999
    91   1      1.7850000000000039      39.269999999999996      39.269999999999996
    92   1      3.5700000000000003      37.484999999999999      39.269999999999996
    93   1      3.5700000000000003      39.269999999999996      37.484999999999999
    94   1      1.7850000000000039      37.484999999999999      41.055000000000007
    95   1      1.7850000000000039      39.269999999999996      42.840000000000003
    96   1      3.5700000000000003      37.484999999999999      42.840000000000003
    97   1      3.5700000000000003      39.269999999999996      41.055000000000007
    98   1      1.7850000000000039      37.484999999999999                  44.625
    99   1      1.7850000000000039      39.269999999999996      46.409999999999997
   100   1      3.5700000000000003      37.484999999999999      46.409999999999997
   101   1      3.5700000000000003      39.269999999999996                  44.625
   102   1      1.7850000000000039      37.484999999999999                  48.195
   103   1      1.7850000000000039      39.269999999999996      49.979999999999997
   104   1      3.5700000000000003      37.484999999999999      49.979999999999997
   105   1      3.5700000000000003      39.269999999999996                  48.195
   106   1      3.5700000000000003      37.484999999999999      53.550000000000004
   107   1      3.5700000000000003      39.269999999999996      51.765000000000008
   108   1      3.5700000000000003      39.269999999999996      55.335000000000001
   109   1      3.5700000000000003      41.055000000000007      28.560000000000002
   110   1      3.5700000000000003      42.840000000000003      26.775000000000002
   111   1      1.7850000000000039      42.840000000000003      32.129999999999995
   112   1      3.5700000000000003      41.055000000000007      32.129999999999995
   113   1      3.5700000000000003      42.840000000000003      30.344999999999999
   114   1      1.7850000000000039      41.055000000000007      33.914999999999999
   115   1      1.7850000000000039      42.840000000000003      35.699999999999996
   116   1      3.5700000000000003      41.055000000000007      35.699999999999996
   117   1      3.5700000000000003      42.840000000000003      33.914999999999999
   118   1      1.7850000000000039      41.055000000000007      37.484999999999999
   119   1      1.7850000000000039      42.840000000000003      39.269999999999996
   120   1      3.5700000000000003      41.055000000000007      39.269999999999996
   121   1      3.5700000000000003      42.840000000000003      37.484999999999999
   122   1      1.7850000000000039      41.055000000000007      41.055000000000007
   123   1      1.7850000000000039      42.840000000000003      42.840000000000003
   124   1      3.5700000000000003      41.055000000000007      42.840000000000003
   125   1      3.5700000000000003      42.840000000000003      41.055000000000007
   126   1      1.7850000000000039      41.055000000000007                  44.625
   127   1      1.7850000000000039      42.840000000000003      46.409999999999997
   128   1      3.5700000000000003      41.055000000000007      46.409999999999997
   129   1      3.5700000000000003      42.840000000000003                  44.625
   130   1      1.7850000000000039      41.055000000000007                  48.195
   131   1      1.7850000000000039      42.840000000000003      49.979999999999997
   132   1      3.5700000000000003      41.055000000000007      49.979999999999997
   133   1      3.5700000000000003      42.840000000000003                  48.195
   134   1      3.5700000000000003      41.055000000000007      53.550000000000004
   135   1      3.5700000000000003      42.840000000000003      51.765000000000008
   136   1      3.5700000000000003      42.840000000000003      55.335000000000001
   137   1      3.5700000000000003                  44.625      28.560000000000002
   138   1      3.5700000000000003      46.409999999999997      26.775000000000002
   139   1      1.7850000000000039      46.409999999999997      32.129999999999995
   140   1      3.5700000000000003                  44.625      32.129999999999995
   141   1      3.5700000000000003      46.409999999999997      30.344999999999999
   142   1      1.7850000000000039                  44.625      33.914999999999999
   143   1      1.7850000000000039      46.409999999999997      35.699999999999996
   144   1      3.5700000000000003                  44.625      35.699999999999996
   145   1      3.5700000000000003      46.409999999999997      33.914999999999999
   146   1      1.7850000000000039                  44.625      37.484999999999999
   147   1      1.7850000000000039      46.409999999999997      39.269999999999996
   148   1      3.5700000000000003                  44.625      39.269999999999996
   149   1      3.5700000000000003      46.409999999999997      37.484999999999999
   150   1      1.7850000000000039                  44.625      41.055000000000007
   151   1      1.7850000000000039      46.409999999999997      42.840000000000003
   152   1      3.5700000000000003                  44.625      42.840000000000003
   153   1      3.5700000000000003      46.409999999999997      41.055000000000007
   154   1      1.7850000000000039                  44.625                  44.625
   155   1      1.7850000000000039      46.409999999999997      46.409999999999997
   156   1      3.5700000000000003                  44.625      46.409999999999997
   157   1      3.5700000000000003      46.409999999999997                  44.625
   158   1      1.7850000000000039                  44.625                  48.195
   159   1      1.7850000000000039      46.409999999999997      49.979999999999997
   160   1      3.5700000000000003                  44.625      49.979999999999997
   161   1      3.5700000000000003      46.409999999999997                  48.195
   162   1      3.5700000000000003                  44.625      53.550000000000004
   163   1      3.5700000000000003      46.409999999999997      51.765000000000008
   164   1      3.5700000000000003      46.409999999999997      55.335000000000001
   165   1      3.5700000000000003                  48.195      28.560000000000002
   166   1      3.5700000000000003      49.979999999999997      26.775000000000002
   167   1      1.7850000000000039      49.979999999999997      32.129999999999995
   168   1      3.5700000000000003                  48.195      32.129999999999995
   169   1      3.5700000000000003      49.979999999999997      30.344999999999999
   170   1      1.7850000000000039                  48.195      33.914999999999999
   171   1      1.7850000000000039      49.979999999999997      35.699999999999996
   172   1      3.5700000000000003                  48.195      35.699999999999996
   173   1      3.5700000000000003      49.979999999999997      33.914999999999999
   174   1      1.7850000000000039                  48.195      37.484999999999999
   175   1      1.7850000000000039      49.979999999999997      39.269999999999996
   176   1      3.5700000000000003                  48.195      39.269999999999996
   177   1      3.5700000000000003      49.979999999999997      37.484999999999999
   178   1      1.7850000000000039                  48.195      41.055000000000007
   179   1      1.7850000000000039      49.979999999999997      42.840000000000003
   180   1      3.5700000000000003                  48.195      42.840000000000003
   181   1      3.5700000000000003      49.979999999999997      41.055000000000007
   182   1      1.7850000000000039                  48.195                  44.625
   183   1      1.7850000000000039      49.979999999999997      46.409999999999997
   184   1      3.5700000000000003                  48.195      46.409999999999997
   185   1      3.5700000000000003      49.979999999999997                  44.625
   186   1      1.7850000000000039                  48.195                  48.195
   187   1      1.7850000000000039      49.979999999999997      49.979999999999997
   188   1      3.5700000000000003                  48.195      49.979999999999997
   189   1      3.5700000000000003      49.979999999999997                  48.195
   190   1      3.5700000000000003                  48.195      53.550000000000004
   191   1      3.5700000000000003      49.979999999999997      51.765000000000008
   192   1      3.5700000000000003      49.979999999999997      55.335000000000001
   193   1      3.5700000000000003      51.765000000000008      28.560000000000002
   194   1      3.5700000000000003      53.550000000000004      26.775000000000002
   195   1      3.5700000000000003      51.765000000000008      32.129999999999995
   196   1      3.5700000000000003      53.550000000000004      30.344999999999999
   197   1      3.5700000000000003      51.765000000000008      35.699999999999996
   198   1      3.5700000000000003      53.550000000000004      33.914999999999999
   199   1      3.5700000000000003      51.765000000000008      39.269999999999996
   200   1      3.5700000000000003      53.550000000000004      37.484999999999999
   201   1      3.5700000000000003      51.765000000000008      42.840000000000003
   202   1      3.5700000000000003      53.550000000000004      41.055000000000007
   203   1      3.5700000000000003      51.765000000000008      46.409999999999997
   204   1      3.5700000000000003      53.550000000000004                  44.625
   205   1      3.5700000000000003      51.765000000000008      49.979999999999997
   206   1      3.5700000000000003      53.550000000000004                  48.195
   207   1      3.5700000000000003      51.765000000000008      53.550000000000004
   208   1      3.5700000000000003      53.550000000000004      51.765000000000008
   209   1      3.5700000000000003      53.550000000000004      55.335000000000001
   210   1      3.5700000000000003      55.335000000000001      28.560000000000002
   211   1      3.5700000000000003      55.335000000000001      32.129999999999995
   212   1      3.5700000000000003      55.335000000000001      35.699999999999996
   213   1      3.5700000000000003      55.335000000000001      39.269999999999996
   214   1      3.5700000000000003      55.335000000000001      42.840000000000003
   215   1      3.5700000000000003      55.335000000000001      46.409999999999997
   216   1      3.5700000000000003      55.335000000000001      49.979999999999997
   217   1      3.5700000000000003      55.335000000000001      53.550000000000004
   218   1      7.1400000000000006      16.065000000000001      17.850000000000001
   219   1      7.1400000000000006      17.850000000000001      16.065000000000001
   220   1      7.1400000000000006      16.065000000000001      21.420000000000002
   221   1      7.1400000000000006      17.850000000000001      19.635000000000002
   222   1      7.1400000000000006      16.065000000000001      24.990000000000006
   223   1      7.1400000000000006      17.850000000000001      23.205000000000002
   224   1      7.1400000000000006      16.065000000000001      28.560000000000002
   225   1      7.1400000000000006      17.850000000000001      26.775000000000002
   226   1      7.1400000000000006      16.065000000000001      32.129999999999995
   227   1      7.1400000000000006      17.850000000000001      30.344999999999999
   228   1      7.1400000000000006      16.065000000000001      35.699999999999996
   229   1      7.1400000000000006      17.850000000000001      33.914999999999999
   230   1      7.1400000000000006      16.065000000000001      39.269999999999996
   231   1      7.1400000000000006      17.850000000000001      37.484999999999999
   232   1      7.1400000000000006      16.065000000000001      42.840000000000003
   233   1      7.1400000000000006      17.850000000000001      41.055000000000007
   234   1      7.1400000000000006      16.065000000000001      46.409999999999997
   235   1      7.1400000000000006      17.850000000000001                  44.625
   236   1      7.1400000000000006      16.065000000000001      49.979999999999997
   237   1      7.1400000000000006      17.850000000000001                  48.195
   238   1      7.1400000000000006      16.065000000000001      53.550000000000004
   239   1      7.1400000000000006      17.850000000000001      51.765000000000008
   240   1      7.1400000000000006      16.065000000000001      57.119999999999997
   241   1      7.1400000000000006      17.850000000000001      55.335000000000001
   242   1      7.1400000000000006      16.065000000000001      60.689999999999998
   243   1      7.1400000000000006      17.850000000000001      58.905000000000001
   244   1      7.1400000000000006      16.065000000000001      64.259999999999991
   245   1      7.1400000000000006      17.850000000000001      62.474999999999994
   246   1      7.1400000000000006      17.850000000000001      66.045000000000002
   247   1      7.1400000000000006      19.635000000000002      17.850000000000001
   248   1      7.1400000000000006      21.420000000000002      16.065000000000001
   249   1       5.355000000000004      21.420000000000002      21.420000000000002
   250   1      7.1400000000000006      19.635000000000002      21.420000000000002
   251   1      7.1400000000000006      21.420000000000002      19.635000000000002
   252   1       5.355000000000004      21.420000000000002      24.990000000000006
   253   1      7.1400000000000006      19.635000000000002      24.990000000000006
   254   1      7.1400000000000006      21.420000000000002      23.205000000000002
   255   1       5.355000000000004      21.420000000000002      28.560000000000002
   256   1      7.1400000000000006      19.635000000000002      28.560000000000002
   257   1      7.1400000000000006      21.420000000000002      26.775000000000002
   258   1       5.355000000000004      21.420000000000002      32.129999999999995
   259   1      7.1400000000000006      19.635000000000002      32.129999999999995
   260   1      7.1400000000000006      21.420000000000002      30.344999999999999
   261   1       5.355000000000004      21.420000000000002      35.699999999999996
   262   1      7.1400000000000006      19.635000000000002      35.699999999999996
   263   1      7.1400000000000006      21.420000000000002      33.914999999999999
   264   1       5.355000000000004      21.420000000000002      39.269999999999996
   265   1      7.1400000000000006      19.635000000000002      39.269999999999996
   266   1      7.1400000000000006      21.420000000000002      37.484999999999999
   267   1       5.355000000000004      21.420000000000002      42.840000000000003
   268   1      7.1400000000000006      19.635000000000002      42.840000000000003
   269   1      7.1400000000000006      21.420000000000002      41.055000000000007
   270   1       5.355000000000004      21.420000000000002      46.409999999999997
   271   1      7.1400000000000006      19.635000000000002      46.409999999999997
   272   1      7.1400000000000006      21.420000000000002                  44.625
   273   1       5.355000000000004      21.420000000000002      49.979999999999997
   274   1      7.1400000000000006      19.635000000000002      49.979999999999997
   275   1      7.1400000000000006      21.420000000000002                  48.195
   276   1       5.355000000000004      21.420000000000002      53.550000000000004
   277   1      7.1400000000000006      19.635000000000002      53.550000000000004
   278   1      7.1400000000000006      21.420000000000002      51.765000000000008
   279   1       5.355000000000004      21.420000000000002      57.119999999999997
   280   1      7.1400000000000006      19.635000000000002      57.119999999999997
   281   1      7.1400000000000006      21.420000000000002      55.335000000000001
   282   1       5.355000000000004      21.420000000000002      60.689999999999998
   283   1      7.1400000000000006      19.635000000000002      60.689999999999998
   284   1      7.1400000000000006      21.420000000000002      58.905000000000001
   285   1      7.1400000000000006      19.635000000000002      64.259999999999991
   286   1      7.1400000000000006      21.420000000000002      62.474999999999994
   287   1      7.1400000000000006      21.420000000000002      66.045000000000002
   288   1      7.1400000000000006      23.205000000000002      17.850000000000001
   289   1      7.1400000000000006      24.990000000000006      16.065000000000001
   290   1       5.355000000000004      24.990000000000006      21.420000000000002
   291   1      7.1400000000000006      23.205000000000002      21.420000000000002
   292   1      7.1400000000000006      24.990000000000006      19.635000000000002
   293   1       5.355000000000004      23.205000000000002      23.205000000000002
   294   1       5.355000000000004      24.990000000000006      24.990000000000006
   295   1      7.1400000000000006      23.205000000000002      24.990000000000006
   296   1      7.1400000000000006      24.990000000000006      23.205000000000002
   297   1       5.355000000000004      23.205000000000002      26.775000000000002
   298   1       5.355000000000004      24.990000000000006      28.560000000000002
   299   1      7.1400000000000006      23.205000000000002      28.560000000000002
   300   1      7.1400000000000006      24.990000000000006      26.775000000000002
   301   1       5.355000000000004      23.205000000000002      30.344999999999999
   302   1       5.355000000000004      24.990000000000006      32.129999999999995
   303   1      7.1400000000000006      23.205000000000002      32.129999999999995
   304   1      7.1400000000000006      24.990000000000006      30.344999999999999
   305   1       5.355000000000004      23.205000000000002      33.914999999999999
   306   1       5.355000000000004      24.990000000000006      35.699999999999996
   307   1      7.1400000000000006      23.205000000000002      35.699999999999996
   308   1      7.1400000000000006      24.990000000000006      33.914999999999999
   309   1       5.355000000000004      23.205000000000002      37.484999999999999
   310   1       5.355000000000004      24.990000000000006      39.269999999999996
   311   1      7.1400000000000006      23.205000000000002      39.269999999999996
   312   1      7.1400000000000006      24.990000000000006      37.484999999999999
   313   1       5.355000000000004      23.205000000000002      41.055000000000007
   314   1       5.355000000000004      24.990000000000006      42.840000000000003
   315   1      7.1400000000000006      23.205000000000002      42.840000000000003
   316   1      7.1400000000000006      24.990000000000006      41.055000000000007
   317   1       5.355000000000004      23.205000000000002                  44.625
   318   1       5.355000000000004      24.990000000000006      46.409999999999997
   319   1      7.1400000000000006      23.205000000000002      46.409999999999997
   320   1      7.1400000000000006      24.990000000000006                  44.625
   321   1       5.355000000000004      23.205000000000002                  48.195
   322   1       5.355000000000004      24.990000000000006      49.979999999999997
   323   1      7.1400000000000006      23.205000000000002      49.979999999999997
   324   1      7.1400000000000006      24.990000000000006                  48.195
   325   1       5.355000000000004      23.205000000000002      51.765000000000008
   326   1       5.355000000000004      24.990000000000006      53.550000000000004
   327   1      7.1400000000000006      23.205000000000002      53.550000000000004
   328   1      7.1400000000000006      24.990000000000006      51.765000000000008
   329   1       5.355000000000004      23.205000000000002      55.335000000000001
   330   1       5.355000000000004      24.990000000000006      57.119999999999997
   331   1      7.1400000000000006      23.205000000000002      57.119999999999997
   332   1      7.1400000000000006      24.990000000000006      55.335000000000001
   333   1       5.355000000000004      23.205000000000002      58.905000000000001
   334   1       5.355000000000004      24.990000000000006      60.689999999999998
   335   1      7.1400000000000006      23.205000000000002      60.689999999999998
   336   1      7.1400000000000006      24.990000000000006      58.905000000000001
   337   1      7.1400000000000006      23.205000000000002      64.259999999999991
   338   1      7.1400000000000006      24.990000000000006      62.474999999999994
   339   1      7.1400000000000006      24.990000000000006      66.045000000000002
   340   1      7.1400000000000006      26.775000000000002      17.850000000000001
   341   1      7.1400000000000006      28.560000000000002      16.065000000000001
   342   1       5.355000000000004      28.560000000000002      21.420000000000002
   343   1      7.1400000000000006      26.775000000000002      21.420000000000002
   344   1      7.1400000000000006      28.560000000000002      19.635000000000002
   345   1       5.355000000000004      26.775000000000002      23.205000000000002
   346   1       5.355000000000004      28.560000000000002      24.990000000000006
   347   1      7.1400000000000006      26.775000000000002      24.990000000000006
   348   1      7.1400000000000006      28.560000000000002      23.205000000000002
   349   1       5.355000000000004      26.775000000000002      26.775000000000002
   350   1       5.355000000000004      28.560000000000002      28.560000000000002
   351   1      7.1400000000000006      26.775000000000002      28.560000000000002
   352   1      7.1400000000000006      28.560000000000002      26.775000000000002
   353   1       5.355000000000004      26.775000000000002      30.344999999999999
   354   1       5.355000000000004      28.560000000000002      32.129999999999995
   355   1      7.1400000000000006      26.775000000000002      32.129999999999995
   356   1      7.1400000000000006      28.560000000000002      30.344999999999999
   357   1       5.355000000000004      26.775000000000002      33.914999999999999
   358   1       5.355000000000004      28.560000000000002      35.699999999999996