model_files/PtCu/PtCu_30000/PtCu_540/PtCu_540_fcc_29765_temp.data (written by ASE) 

29765 	 atoms 
2  atom types
0.0                     109  xlo xhi
0.0                     109  ylo yhi
0.0                     109  zlo zhi


Atoms 

     1   1  7.1054273576010019e-15      51.975000000000001      51.975000000000001
     2   1      1.9250000000000043      50.050000000000004      51.975000000000001
     3   1      1.9250000000000043      51.975000000000001      50.050000000000004
     4   1  7.1054273576010019e-15      51.975000000000001       55.82500000000001
     5   1      1.9250000000000043      50.050000000000004       55.82500000000001
     6   1      1.9250000000000043      51.975000000000001      53.900000000000006
     7   1      1.9250000000000043      51.975000000000001      57.750000000000014
     8   1  7.1054273576010019e-15       55.82500000000001      51.975000000000001
     9   1      1.9250000000000043      53.900000000000006      51.975000000000001
    10   1      1.9250000000000043       55.82500000000001      50.050000000000004
    11   1  7.1054273576010019e-15      53.900000000000006      53.900000000000006
    12   1  7.1054273576010019e-15       55.82500000000001       55.82500000000001
    13   1      1.9250000000000043      53.900000000000006       55.82500000000001
    14   1      1.9250000000000043       55.82500000000001      53.900000000000006
    15   1      1.9250000000000043       55.82500000000001      57.750000000000014
    16   1      1.9250000000000043      57.750000000000014      51.975000000000001
    17   1      1.9250000000000043      57.750000000000014       55.82500000000001
    18   1      3.8500000000000085      48.125000000000014      48.125000000000014
    19   1      5.7750000000000066      46.200000000000017      48.125000000000014
    20   1      5.7750000000000066      48.125000000000014      46.200000000000017
    21   1      3.8500000000000085      48.125000000000014      51.975000000000001
    22   1      5.7750000000000066      46.200000000000017      51.975000000000001
    23   1      5.7750000000000066      48.125000000000014      50.050000000000004
    24   1      3.8500000000000085      48.125000000000014       55.82500000000001
    25   1      5.7750000000000066      46.200000000000017       55.82500000000001
    26   1      5.7750000000000066      48.125000000000014      53.900000000000006
    27   1      3.8500000000000085      48.125000000000014      59.675000000000011
    28   1      5.7750000000000066      46.200000000000017      59.675000000000011
    29   1      5.7750000000000066      48.125000000000014      57.750000000000014
    30   1      5.7750000000000066      48.125000000000014      61.600000000000016
    31   1      3.8500000000000085      51.975000000000001      48.125000000000014
    32   1      5.7750000000000066      50.050000000000004      48.125000000000014
    33   1      5.7750000000000066      51.975000000000001      46.200000000000017
    34   1      3.8500000000000085      50.050000000000004      50.050000000000004
    35   1      3.8500000000000085      51.975000000000001      51.975000000000001
    36   1      5.7750000000000066      50.050000000000004      51.975000000000001
    37   1      5.7750000000000066      51.975000000000001      50.050000000000004
    38   1      3.8500000000000085      50.050000000000004      53.900000000000006
    39   1      3.8500000000000085      51.975000000000001       55.82500000000001
    40   1      5.7750000000000066      50.050000000000004       55.82500000000001
    41   1      5.7750000000000066      51.975000000000001      53.900000000000006
    42   1      3.8500000000000085      50.050000000000004      57.750000000000014
    43   1      3.8500000000000085      51.975000000000001      59.675000000000011
    44   1      5.7750000000000066      50.050000000000004      59.675000000000011
    45   1      5.7750000000000066      51.975000000000001      57.750000000000014
    46   1      5.7750000000000066      51.975000000000001      61.600000000000016
    47   1      3.8500000000000085       55.82500000000001      48.125000000000014
    48   1      5.7750000000000066      53.900000000000006      48.125000000000014
    49   1      5.7750000000000066       55.82500000000001      46.200000000000017
    50   1      3.8500000000000085      53.900000000000006      50.050000000000004
    51   1      3.8500000000000085       55.82500000000001      51.975000000000001
    52   1      5.7750000000000066      53.900000000000006      51.975000000000001
    53   1      5.7750000000000066       55.82500000000001      50.050000000000004
    54   1      3.8500000000000085      53.900000000000006      53.900000000000006
    55   1      3.8500000000000085       55.82500000000001       55.82500000000001
    56   1      5.7750000000000066      53.900000000000006       55.82500000000001
    57   1      5.7750000000000066       55.82500000000001      53.900000000000006
    58   1      3.8500000000000085      53.900000000000006      57.750000000000014
    59   1      3.8500000000000085       55.82500000000001      59.675000000000011
    60   1      5.7750000000000066      53.900000000000006      59.675000000000011
    61   1      5.7750000000000066       55.82500000000001      57.750000000000014
    62   1      5.7750000000000066       55.82500000000001      61.600000000000016
    63   1      3.8500000000000085      59.675000000000011      48.125000000000014
    64   1      5.7750000000000066      57.750000000000014      48.125000000000014
    65   1      5.7750000000000066      59.675000000000011      46.200000000000017
    66   1      3.8500000000000085      57.750000000000014      50.050000000000004
    67   1      3.8500000000000085      59.675000000000011      51.975000000000001
    68   1      5.7750000000000066      57.750000000000014      51.975000000000001
    69   1      5.7750000000000066      59.675000000000011      50.050000000000004
    70   1      3.8500000000000085      57.750000000000014      53.900000000000006
    71   1      3.8500000000000085      59.675000000000011       55.82500000000001
    72   1      5.7750000000000066      57.750000000000014       55.82500000000001
    73   1      5.7750000000000066      59.675000000000011      53.900000000000006
    74   1      3.8500000000000085      57.750000000000014      57.750000000000014
    75   1      3.8500000000000085      59.675000000000011      59.675000000000011
    76   1      5.7750000000000066      57.750000000000014      59.675000000000011
    77   1      5.7750000000000066      59.675000000000011      57.750000000000014
    78   1      5.7750000000000066      59.675000000000011      61.600000000000016
    79   1      5.7750000000000066      61.600000000000016      48.125000000000014
    80   1      5.7750000000000066      61.600000000000016      51.975000000000001
    81   1      5.7750000000000066      61.600000000000016       55.82500000000001
    82   1      5.7750000000000066      61.600000000000016      59.675000000000011
    83   1      9.6250000000000071      40.425000000000004      42.350000000000009
    84   1      9.6250000000000071      40.425000000000004      46.200000000000017
    85   1      9.6250000000000071      40.425000000000004      50.050000000000004
    86   1      9.6250000000000071      40.425000000000004      53.900000000000006
    87   1      9.6250000000000071      40.425000000000004      57.750000000000014
    88   1      9.6250000000000071      40.425000000000004      61.600000000000016
    89   1      9.6250000000000071      40.425000000000004      65.450000000000003
    90   1      9.6250000000000071      42.350000000000009      40.425000000000004
    91   1      7.7000000000000037      42.350000000000009      42.350000000000009
    92   1      7.7000000000000037      44.275000000000006      44.275000000000006
    93   1      9.6250000000000071      42.350000000000009      44.275000000000006
    94   1      9.6250000000000071      44.275000000000006      42.350000000000009
    95   1      7.7000000000000037      42.350000000000009      46.200000000000017
    96   1      7.7000000000000037      44.275000000000006      48.125000000000014
    97   1      9.6250000000000071      42.350000000000009      48.125000000000014
    98   1      9.6250000000000071      44.275000000000006      46.200000000000017
    99   1      7.7000000000000037      42.350000000000009      50.050000000000004
   100   1      7.7000000000000037      44.275000000000006      51.975000000000001
   101   1      9.6250000000000071      42.350000000000009      51.975000000000001
   102   1      9.6250000000000071      44.275000000000006      50.050000000000004
   103   1      7.7000000000000037      42.350000000000009      53.900000000000006
   104   1      7.7000000000000037      44.275000000000006       55.82500000000001
   105   1      9.6250000000000071      42.350000000000009       55.82500000000001
   106   1      9.6250000000000071      44.275000000000006      53.900000000000006
   107   1      7.7000000000000037      42.350000000000009      57.750000000000014
   108   1      7.7000000000000037      44.275000000000006      59.675000000000011
   109   1      9.6250000000000071      42.350000000000009      59.675000000000011
   110   1      9.6250000000000071      44.275000000000006      57.750000000000014
   111   1      7.7000000000000037      42.350000000000009      61.600000000000016
   112   1      7.7000000000000037      44.275000000000006      63.525000000000006
   113   1      9.6250000000000071      42.350000000000009      63.525000000000006
   114   1      9.6250000000000071      44.275000000000006      61.600000000000016
   115   1      7.7000000000000037      42.350000000000009      65.450000000000003
   116   1      9.6250000000000071      42.350000000000009                  67.375
   117   1      9.6250000000000071      44.275000000000006      65.450000000000003
   118   1      9.6250000000000071      46.200000000000017      40.425000000000004
   119   1      7.7000000000000037      46.200000000000017      42.350000000000009
   120   1      7.7000000000000037      48.125000000000014      44.275000000000006
   121   1      9.6250000000000071      46.200000000000017      44.275000000000006
   122   1      9.6250000000000071      48.125000000000014      42.350000000000009
   123   1      7.7000000000000037      46.200000000000017      46.200000000000017
   124   1      7.7000000000000037      48.125000000000014      48.125000000000014
   125   1      9.6250000000000071      46.200000000000017      48.125000000000014
   126   1      9.6250000000000071      48.125000000000014      46.200000000000017
   127   1      7.7000000000000037      46.200000000000017      50.050000000000004
   128   1      7.7000000000000037      48.125000000000014      51.975000000000001
   129   1      9.6250000000000071      46.200000000000017      51.975000000000001
   130   1      9.6250000000000071      48.125000000000014      50.050000000000004
   131   1      7.7000000000000037      46.200000000000017      53.900000000000006
   132   1      7.7000000000000037      48.125000000000014       55.82500000000001
   133   1      9.6250000000000071      46.200000000000017       55.82500000000001
   134   1      9.6250000000000071      48.125000000000014      53.900000000000006
   135   1      7.7000000000000037      46.200000000000017      57.750000000000014
   136   1      7.7000000000000037      48.125000000000014      59.675000000000011
   137   1      9.6250000000000071      46.200000000000017      59.675000000000011
   138   1      9.6250000000000071      48.125000000000014      57.750000000000014
   139   1      7.7000000000000037      46.200000000000017      61.600000000000016
   140   1      7.7000000000000037      48.125000000000014      63.525000000000006
   141   1      9.6250000000000071      46.200000000000017      63.525000000000006
   142   1      9.6250000000000071      48.125000000000014      61.600000000000016
   143   1      7.7000000000000037      46.200000000000017      65.450000000000003
   144   1      9.6250000000000071      46.200000000000017                  67.375
   145   1      9.6250000000000071      48.125000000000014      65.450000000000003
   146   1      9.6250000000000071      50.050000000000004      40.425000000000004
   147   1      7.7000000000000037      50.050000000000004      42.350000000000009
   148   1      7.7000000000000037      51.975000000000001      44.275000000000006
   149   1      9.6250000000000071      50.050000000000004      44.275000000000006
   150   1      9.6250000000000071      51.975000000000001      42.350000000000009
   151   1      7.7000000000000037      50.050000000000004      46.200000000000017
   152   1      7.7000000000000037      51.975000000000001      48.125000000000014
   153   1      9.6250000000000071      50.050000000000004      48.125000000000014
   154   1      9.6250000000000071      51.975000000000001      46.200000000000017
   155   1      7.7000000000000037      50.050000000000004      50.050000000000004
   156   1      7.7000000000000037      51.975000000000001      51.975000000000001
   157   1      9.6250000000000071      50.050000000000004      51.975000000000001
   158   1      9.6250000000000071      51.975000000000001      50.050000000000004
   159   1      7.7000000000000037      50.050000000000004      53.900000000000006
   160   1      7.7000000000000037      51.975000000000001       55.82500000000001
   161   1      9.6250000000000071      50.050000000000004       55.82500000000001
   162   1      9.6250000000000071      51.975000000000001      53.900000000000006
   163   1      7.7000000000000037      50.050000000000004      57.750000000000014
   164   1      7.7000000000000037      51.975000000000001      59.675000000000011
   165   1      9.6250000000000071      50.050000000000004      59.675000000000011
   166   1      9.6250000000000071      51.975000000000001      57.750000000000014
   167   1      7.7000000000000037      50.050000000000004      61.600000000000016
   168   1      7.7000000000000037      51.975000000000001      63.525000000000006
   169   1      9.6250000000000071      50.050000000000004      63.525000000000006
   170   1      9.6250000000000071      51.975000000000001      61.600000000000016
   171   1      7.7000000000000037      50.050000000000004      65.450000000000003
   172   1      9.6250000000000071      50.050000000000004                  67.375
   173   1      9.6250000000000071      51.975000000000001      65.450000000000003
   174   1      9.6250000000000071      53.900000000000006      40.425000000000004
   175   1      7.7000000000000037      53.900000000000006      42.350000000000009
   176   1      7.7000000000000037       55.82500000000001      44.275000000000006
   177   1      9.6250000000000071      53.900000000000006      44.275000000000006
   178   1      9.6250000000000071       55.82500000000001      42.350000000000009
   179   1      7.7000000000000037      53.900000000000006      46.200000000000017
   180   1      7.7000000000000037       55.82500000000001      48.125000000000014
   181   1      9.6250000000000071      53.900000000000006      48.125000000000014
   182   1      9.6250000000000071       55.82500000000001      46.200000000000017
   183   1      7.7000000000000037      53.900000000000006      50.050000000000004
   184   1      7.7000000000000037       55.82500000000001      51.975000000000001
   185   1      9.6250000000000071      53.900000000000006      51.975000000000001
   186   1      9.6250000000000071       55.82500000000001      50.050000000000004
   187   1      7.7000000000000037      53.900000000000006      53.900000000000006
   188   1      7.7000000000000037       55.82500000000001       55.82500000000001
   189   1      9.6250000000000071      53.900000000000006       55.82500000000001
   190   1      9.6250000000000071       55.82500000000001      53.900000000000006
   191   1      7.7000000000000037      53.900000000000006      57.750000000000014
   192   1      7.7000000000000037       55.82500000000001      59.675000000000011
   193   1      9.6250000000000071      53.900000000000006      59.675000000000011
   194   1      9.6250000000000071       55.82500000000001      57.750000000000014
   195   1      7.7000000000000037      53.900000000000006      61.600000000000016
   196   1      7.7000000000000037       55.82500000000001      63.525000000000006
   197   1      9.6250000000000071      53.900000000000006      63.525000000000006
   198   1      9.6250000000000071       55.82500000000001      61.600000000000016
   199   1      7.7000000000000037      53.900000000000006      65.450000000000003
   200   1      9.6250000000000071      53.900000000000006                  67.375
   201   1      9.6250000000000071       55.82500000000001      65.450000000000003
   202   1      9.6250000000000071      57.750000000000014      40.425000000000004
   203   1      7.7000000000000037      57.750000000000014      42.350000000000009
   204   1      7.7000000000000037      59.675000000000011      44.275000000000006
   205   1      9.6250000000000071      57.750000000000014      44.275000000000006
   206   1      9.6250000000000071      59.675000000000011      42.350000000000009
   207   1      7.7000000000000037      57.750000000000014      46.200000000000017
   208   1      7.7000000000000037      59.675000000000011      48.125000000000014
   209   1      9.6250000000000071      57.750000000000014      48.125000000000014
   210   1      9.6250000000000071      59.675000000000011      46.200000000000017
   211   1      7.7000000000000037      57.750000000000014      50.050000000000004
   212   1      7.7000000000000037      59.675000000000011      51.975000000000001
   213   1      9.6250000000000071      57.750000000000014      51.975000000000001
   214   1      9.6250000000000071      59.675000000000011      50.050000000000004
   215   1      7.7000000000000037      57.750000000000014      53.900000000000006
   216   1      7.7000000000000037      59.675000000000011       55.82500000000001
   217   1      9.6250000000000071      57.750000000000014       55.82500000000001
   218   1      9.6250000000000071      59.675000000000011      53.900000000000006
   219   1      7.7000000000000037      57.750000000000014      57.750000000000014
   220   1      7.7000000000000037      59.675000000000011      59.675000000000011
   221   1      9.6250000000000071      57.750000000000014      59.675000000000011
   222   1      9.6250000000000071      59.675000000000011      57.750000000000014
   223   1      7.7000000000000037      57.750000000000014      61.600000000000016
   224   1      7.7000000000000037      59.675000000000011      63.525000000000006
   225   1      9.6250000000000071      57.750000000000014      63.525000000000006
   226   1      9.6250000000000071      59.675000000000011      61.600000000000016
   227   1      7.7000000000000037      57.750000000000014      65.450000000000003
   228   1      9.6250000000000071      57.750000000000014                  67.375
   229   1      9.6250000000000071      59.675000000000011      65.450000000000003
   230   1      9.6250000000000071      61.600000000000016      40.425000000000004
   231   1      7.7000000000000037      61.600000000000016      42.350000000000009
   232   1      7.7000000000000037      63.525000000000006      44.275000000000006
   233   1      9.6250000000000071      61.600000000000016      44.275000000000006
   234   1      9.6250000000000071      63.525000000000006      42.350000000000009
   235   1      7.7000000000000037      61.600000000000016      46.200000000000017
   236   1      7.7000000000000037      63.525000000000006      48.125000000000014
   237   1      9.6250000000000071      61.600000000000016      48.125000000000014
   238   1      9.6250000000000071      63.525000000000006      46.200000000000017
   239   1      7.7000000000000037      61.600000000000016      50.050000000000004
   240   1      7.7000000000000037      63.525000000000006      51.975000000000001
   241   1      9.6250000000000071      61.600000000000016      51.975000000000001
   242   1      9.6250000000000071      63.525000000000006      50.050000000000004
   243   1      7.7000000000000037      61.600000000000016      53.900000000000006
   244   1      7.7000000000000037      63.525000000000006       55.82500000000001
   245   1      9.6250000000000071      61.600000000000016       55.82500000000001
   246   1      9.6250000000000071      63.525000000000006      53.900000000000006
   247   1      7.7000000000000037      61.600000000000016      57.750000000000014
   248   1      7.7000000000000037      63.525000000000006      59.675000000000011
   249   1      9.6250000000000071      61.600000000000016      59.675000000000011
   250   1      9.6250000000000071      63.525000000000006      57.750000000000014
   251   1      7.7000000000000037      61.600000000000016      61.600000000000016
   252   1      7.7000000000000037      63.525000000000006      63.525000000000006
   253   1      9.6250000000000071      61.600000000000016      63.525000000000006
   254   1      9.6250000000000071      63.525000000000006      61.600000000000016
   255   1      7.7000000000000037      61.600000000000016      65.450000000000003
   256   1      9.6250000000000071      61.600000000000016                  67.375
   257   1      9.6250000000000071      63.525000000000006      65.450000000000003
   258   1      9.6250000000000071      65.450000000000003      40.425000000000004
   259   1      7.7000000000000037      65.450000000000003      42.350000000000009
   260   1      9.6250000000000071      65.450000000000003      44.275000000000006
   261   1      9.6250000000000071                  67.375      42.350000000000009
   262   1      7.7000000000000037      65.450000000000003      46.200000000000017
   263   1      9.6250000000000071      65.450000000000003      48.125000000000014
   264   1      9.6250000000000071                  67.375      46.200000000000017
   265   1      7.7000000000000037      65.450000000000003      50.050000000000004
   266   1      9.6250000000000071      65.450000000000003      51.975000000000001
   267   1      9.6250000000000071                  67.375      50.050000000000004
   268   1      7.7000000000000037      65.450000000000003      53.900000000000006
   269   1      9.6250000000000071      65.450000000000003       55.82500000000001
   270   1      9.6250000000000071                  67.375      53.900000000000006
   271   1      7.7000000000000037      65.450000000000003      57.750000000000014
   272   1      9.6250000000000071      65.450000000000003      59.675000000000011
   273   1      9.6250000000000071                  67.375      57.750000000000014
   274   1      7.7000000000000037      65.450000000000003      61.600000000000016
   275   1      9.6250000000000071      65.450000000000003      63.525000000000006
   276   1      9.6250000000000071                  67.375      61.600000000000016
   277   1      7.7000000000000037      65.450000000000003      65.450000000000003
   278   1      9.6250000000000071      65.450000000000003                  67.375
   279   1      9.6250000000000071                  67.375      65.450000000000003
   280   1      13.475000000000009      36.575000000000003      38.500000000000014
   281   1      13.475000000000009      36.575000000000003      42.350000000000009
   282   1      13.475000000000009      36.575000000000003      46.200000000000017
   283   1      13.475000000000009      36.575000000000003      50.050000000000004
   284   1      13.475000000000009      36.575000000000003      53.900000000000006
   285   1      13.475000000000009      36.575000000000003      57.750000000000014
   286   1      13.475000000000009      36.575000000000003      61.600000000000016
   287   1      13.475000000000009      36.575000000000003      65.450000000000003
   288   1      13.475000000000009      36.575000000000003      69.300000000000011
   289   1      13.475000000000009      38.500000000000014      36.575000000000003
   290   1      11.550000000000006      38.500000000000014      38.500000000000014
   291   1      11.550000000000006      40.425000000000004      40.425000000000004
   292   1      13.475000000000009      38.500000000000014      40.425000000000004
   293   1      13.475000000000009      40.425000000000004      38.500000000000014
   294   1      11.550000000000006      38.500000000000014      42.350000000000009
   295   1      11.550000000000006      40.425000000000004      44.275000000000006
   296   1      13.475000000000009      38.500000000000014      44.275000000000006
   297   1      13.475000000000009      40.425000000000004      42.350000000000009
   298   1      11.550000000000006      38.500000000000014      46.200000000000017
   299   1      11.550000000000006      40.425000000000004      48.125000000000014
   300   1      13.475000000000009      38.500000000000014      48.125000000000014
   301   1      13.475000000000009      40.425000000000004      46.200000000000017
   302   1      11.550000000000006      38.500000000000014      50.050000000000004
   303   1      11.550000000000006      40.425000000000004      51.975000000000001
   304   1      13.475000000000009      38.500000000000014      51.975000000000001
   305   1      13.475000000000009      40.425000000000004      50.050000000000004
   306   1      11.550000000000006      38.500000000000014      53.900000000000006
   307   1      11.550000000000006      40.425000000000004       55.82500000000001
   308   1      13.475000000000009      38.500000000000014       55.82500000000001
   309   1      13.475000000000009      40.425000000000004      53.900000000000006
   310   1      11.550000000000006      38.500000000000014      57.750000000000014
   311   1      11.550000000000006      40.425000000000004      59.675000000000011
   312   1      13.475000000000009      38.500000000000014      59.675000000000011
   313   1      13.475000000000009      40.425000000000004      57.750000000000014
   314   1      11.550000000000006      38.500000000000014      61.600000000000016
   315   1      11.550000000000006      40.425000000000004      63.525000000000006
   316   1      13.475000000000009      38.500000000000014      63.525000000000006
   317   1      13.475000000000009      40.425000000000004      61.600000000000016
   318   1      11.550000000000006      38.500000000000014      65.450000000000003
   319   1      11.550000000000006      40.425000000000004                  67.375
   320   1      13.475000000000009      38.500000000000014                  67.375
   321   1      13.475000000000009      40.425000000000004      65.450000000000003
   322   1      11.550000000000006      38.500000000000014      69.300000000000011
   323   1      13.475000000000009      38.500000000000014      71.225000000000009
   324   1      13.475000000000009      40.425000000000004      69.300000000000011
   325   1      13.475000000000009      42.350000000000009      36.575000000000003
   326   1      11.550000000000006      42.350000000000009      38.500000000000014
   327   1      11.550000000000006      44.275000000000006      40.425000000000004
   328   1      13.475000000000009      42.350000000000009      40.425000000000004
   329   1      13.475000000000009      44.275000000000006      38.500000000000014
   330   1      11.550000000000006      42.350000000000009      42.350000000000009
   331   1      11.550000000000006      44.275000000000006      44.275000000000006
   332   1      13.475000000000009      42.350000000000009      44.275000000000006
   333   1      13.475000000000009      44.275000000000006      42.350000000000009
   334   1      11.550000000000006      42.350000000000009      46.200000000000017
   335   1      11.550000000000006      44.275000000000006      48.125000000000014
   336   1      13.475000000000009      42.350000000000009      48.125000000000014
   337   1      13.475000000000009      44.275000000000006      46.200000000000017
   338   1      11.550000000000006      42.350000000000009      50.050000000000004
   339   1      11.550000000000006      44.275000000000006      51.975000000000001
   340   1      13.475000000000009      42.350000000000009      51.975000000000001
   341   1      13.475000000000009      44.275000000000006      50.050000000000004
   342   1      11.550000000000006      42.350000000000009      53.900000000000006
   343   1      11.550000000000006      44.275000000000006       55.82500000000001
   344   1      13.475000000000009      42.350000000000009       55.82500000000001
   345   1      13.475000000000009      44.275000000000006      53.900000000000006
   346   1      11.550000000000006      42.350000000000009      57.750000000000014
   347   1      11.550000000000006      44.275000000000006      59.675000000000011
   348   1      13.475000000000009      42.350000000000009      59.675000000000011
   349   1      13.475000000000009      44.275000000000006      57.750000000000014
   350   1      11.550000000000006      42.350000000000009      61.600000000000016
   351   1      11.550000000000006      44.275000000000006      63.525000000000006
   352   1      13.475000000000009      42.350000000000009      63.525000000000006
   353   1      13.475000000000009      44.275000000000006      61.600000000000016
   354   1      11.550000000000006      42.350000000000009      65.450000000000003
   355   1      11.550000000000006      44.275000000000006                  67.375
   356   1      13.475000000000009      42.350000000000009                  67.375
   357   1      13.475000000000009      44.275000000000006      65.450000000000003
   358   1      11.550000000000006      42.350000000000009      69.300000000000011