model_files/Ni/Ni_30000/Ni_532/data.Ni_532_fcc_30213 (written by ASE) 

30213 	 atoms 
1  atom types
0.0                      98  xlo xhi
0.0                      98  ylo yhi
0.0                      98  zlo zhi


Atoms 

     1   1      1.7600000000000051      43.999999999999993      49.279999999999994
     2   1      1.7600000000000051      45.759999999999998      47.519999999999996
     3   1      1.7600000000000051      47.519999999999996      45.759999999999998
     4   1      1.7600000000000051      45.759999999999998      51.039999999999992
     5   1      1.7600000000000051      47.519999999999996      49.279999999999994
     6   1      1.7600000000000051      47.519999999999996      52.800000000000004
     7   1      1.7600000000000051      49.279999999999994      43.999999999999993
     8   1      1.7600000000000051      49.279999999999994      47.519999999999996
     9   1      1.7600000000000051      51.039999999999992      45.759999999999998
    10   1  7.1054273576010011e-15      49.279999999999994      49.279999999999994
    11   1      1.7600000000000051      49.279999999999994      51.039999999999992
    12   1      1.7600000000000051      51.039999999999992      49.279999999999994
    13   1      1.7600000000000051      49.279999999999994      54.560000000000002
    14   1      1.7600000000000051      51.039999999999992      52.800000000000004
    15   1      1.7600000000000051      52.800000000000004      47.519999999999996
    16   1      1.7600000000000051      52.800000000000004      51.039999999999992
    17   1      1.7600000000000051      54.560000000000002      49.279999999999994
    18   1      5.2800000000000011      40.480000000000004      45.759999999999998
    19   1      5.2800000000000011      40.480000000000004      49.279999999999994
    20   1      5.2800000000000011      40.480000000000004      52.800000000000004
    21   1      5.2800000000000011      42.240000000000002      43.999999999999993
    22   1      5.2800000000000011      43.999999999999993      42.240000000000002
    23   1      3.5200000000000027      43.999999999999993      47.519999999999996
    24   1      5.2800000000000011      42.240000000000002      47.519999999999996
    25   1      5.2800000000000011      43.999999999999993      45.759999999999998
    26   1      3.5200000000000027      42.240000000000002      49.279999999999994
    27   1      3.5200000000000027      43.999999999999993      51.039999999999992
    28   1      5.2800000000000011      42.240000000000002      51.039999999999992
    29   1      5.2800000000000011      43.999999999999993      49.279999999999994
    30   1      5.2800000000000011      42.240000000000002      54.560000000000002
    31   1      5.2800000000000011      43.999999999999993      52.800000000000004
    32   1      5.2800000000000011      43.999999999999993                   56.32
    33   1      5.2800000000000011      45.759999999999998      40.480000000000004
    34   1      3.5200000000000027      47.519999999999996      43.999999999999993
    35   1      5.2800000000000011      45.759999999999998      43.999999999999993
    36   1      5.2800000000000011      47.519999999999996      42.240000000000002
    37   1      3.5200000000000027      45.759999999999998      45.759999999999998
    38   1      3.5200000000000027      47.519999999999996      47.519999999999996
    39   1      5.2800000000000011      45.759999999999998      47.519999999999996
    40   1      5.2800000000000011      47.519999999999996      45.759999999999998
    41   1      3.5200000000000027      45.759999999999998      49.279999999999994
    42   1      3.5200000000000027      47.519999999999996      51.039999999999992
    43   1      5.2800000000000011      45.759999999999998      51.039999999999992
    44   1      5.2800000000000011      47.519999999999996      49.279999999999994
    45   1      3.5200000000000027      45.759999999999998      52.800000000000004
    46   1      3.5200000000000027      47.519999999999996      54.560000000000002
    47   1      5.2800000000000011      45.759999999999998      54.560000000000002
    48   1      5.2800000000000011      47.519999999999996      52.800000000000004
    49   1      5.2800000000000011      45.759999999999998      58.079999999999998
    50   1      5.2800000000000011      47.519999999999996                   56.32
    51   1      5.2800000000000011      49.279999999999994      40.480000000000004
    52   1      3.5200000000000027      49.279999999999994      42.240000000000002
    53   1      3.5200000000000027      51.039999999999992      43.999999999999993
    54   1      5.2800000000000011      49.279999999999994      43.999999999999993
    55   1      5.2800000000000011      51.039999999999992      42.240000000000002
    56   1      3.5200000000000027      49.279999999999994      45.759999999999998
    57   1      3.5200000000000027      51.039999999999992      47.519999999999996
    58   1      5.2800000000000011      49.279999999999994      47.519999999999996
    59   1      5.2800000000000011      51.039999999999992      45.759999999999998
    60   1      3.5200000000000027      49.279999999999994      49.279999999999994
    61   1      3.5200000000000027      51.039999999999992      51.039999999999992
    62   1      5.2800000000000011      49.279999999999994      51.039999999999992
    63   1      5.2800000000000011      51.039999999999992      49.279999999999994
    64   1      3.5200000000000027      49.279999999999994      52.800000000000004
    65   1      3.5200000000000027      51.039999999999992      54.560000000000002
    66   1      5.2800000000000011      49.279999999999994      54.560000000000002
    67   1      5.2800000000000011      51.039999999999992      52.800000000000004
    68   1      3.5200000000000027      49.279999999999994                   56.32
    69   1      5.2800000000000011      49.279999999999994      58.079999999999998
    70   1      5.2800000000000011      51.039999999999992                   56.32
    71   1      5.2800000000000011      52.800000000000004      40.480000000000004
    72   1      5.2800000000000011      52.800000000000004      43.999999999999993
    73   1      5.2800000000000011      54.560000000000002      42.240000000000002
    74   1      3.5200000000000027      52.800000000000004      45.759999999999998
    75   1      3.5200000000000027      54.560000000000002      47.519999999999996
    76   1      5.2800000000000011      52.800000000000004      47.519999999999996
    77   1      5.2800000000000011      54.560000000000002      45.759999999999998
    78   1      3.5200000000000027      52.800000000000004      49.279999999999994
    79   1      3.5200000000000027      54.560000000000002      51.039999999999992
    80   1      5.2800000000000011      52.800000000000004      51.039999999999992
    81   1      5.2800000000000011      54.560000000000002      49.279999999999994
    82   1      3.5200000000000027      52.800000000000004      52.800000000000004
    83   1      5.2800000000000011      52.800000000000004      54.560000000000002
    84   1      5.2800000000000011      54.560000000000002      52.800000000000004
    85   1      5.2800000000000011      52.800000000000004      58.079999999999998
    86   1      5.2800000000000011      54.560000000000002                   56.32
    87   1      5.2800000000000011                   56.32      43.999999999999993
    88   1      5.2800000000000011                   56.32      47.519999999999996
    89   1      5.2800000000000011      58.079999999999998      45.759999999999998
    90   1      3.5200000000000027                   56.32      49.279999999999994
    91   1      5.2800000000000011                   56.32      51.039999999999992
    92   1      5.2800000000000011      58.079999999999998      49.279999999999994
    93   1      5.2800000000000011                   56.32      54.560000000000002
    94   1      5.2800000000000011      58.079999999999998      52.800000000000004
    95   1      8.8000000000000043      33.440000000000005      49.279999999999994
    96   1      8.8000000000000043      36.959999999999994      42.240000000000002
    97   1      7.0400000000000054      36.959999999999994      47.519999999999996
    98   1      8.8000000000000043      35.199999999999996      47.519999999999996
    99   1      8.8000000000000043      36.959999999999994      45.759999999999998
   100   1      7.0400000000000054      35.199999999999996      49.279999999999994
   101   1      7.0400000000000054      36.959999999999994      51.039999999999992
   102   1      8.8000000000000043      35.199999999999996      51.039999999999992
   103   1      8.8000000000000043      36.959999999999994      49.279999999999994
   104   1      8.8000000000000043      36.959999999999994      52.800000000000004
   105   1      8.8000000000000043      36.959999999999994                   56.32
   106   1      8.8000000000000043      38.719999999999999      40.480000000000004
   107   1      8.8000000000000043      40.480000000000004      38.719999999999999
   108   1      7.0400000000000054      40.480000000000004      43.999999999999993
   109   1      8.8000000000000043      38.719999999999999      43.999999999999993
   110   1      8.8000000000000043      40.480000000000004      42.240000000000002
   111   1      7.0400000000000054      38.719999999999999      45.759999999999998
   112   1      7.0400000000000054      40.480000000000004      47.519999999999996
   113   1      8.8000000000000043      38.719999999999999      47.519999999999996
   114   1      8.8000000000000043      40.480000000000004      45.759999999999998
   115   1      7.0400000000000054      38.719999999999999      49.279999999999994
   116   1      7.0400000000000054      40.480000000000004      51.039999999999992
   117   1      8.8000000000000043      38.719999999999999      51.039999999999992
   118   1      8.8000000000000043      40.480000000000004      49.279999999999994
   119   1      7.0400000000000054      38.719999999999999      52.800000000000004
   120   1      7.0400000000000054      40.480000000000004      54.560000000000002
   121   1      8.8000000000000043      38.719999999999999      54.560000000000002
   122   1      8.8000000000000043      40.480000000000004      52.800000000000004
   123   1      8.8000000000000043      38.719999999999999      58.079999999999998
   124   1      8.8000000000000043      40.480000000000004                   56.32
   125   1      8.8000000000000043      40.480000000000004      59.839999999999996
   126   1      8.8000000000000043      42.240000000000002      36.959999999999994
   127   1      7.0400000000000054      43.999999999999993      40.480000000000004
   128   1      8.8000000000000043      42.240000000000002      40.480000000000004
   129   1      8.8000000000000043      43.999999999999993      38.719999999999999
   130   1      7.0400000000000054      42.240000000000002      42.240000000000002
   131   1      7.0400000000000054      43.999999999999993      43.999999999999993
   132   1      8.8000000000000043      42.240000000000002      43.999999999999993
   133   1      8.8000000000000043      43.999999999999993      42.240000000000002
   134   1      7.0400000000000054      42.240000000000002      45.759999999999998
   135   1      7.0400000000000054      43.999999999999993      47.519999999999996
   136   1      8.8000000000000043      42.240000000000002      47.519999999999996
   137   1      8.8000000000000043      43.999999999999993      45.759999999999998
   138   1      7.0400000000000054      42.240000000000002      49.279999999999994
   139   1      7.0400000000000054      43.999999999999993      51.039999999999992
   140   1      8.8000000000000043      42.240000000000002      51.039999999999992
   141   1      8.8000000000000043      43.999999999999993      49.279999999999994
   142   1      7.0400000000000054      42.240000000000002      52.800000000000004
   143   1      7.0400000000000054      43.999999999999993      54.560000000000002
   144   1      8.8000000000000043      42.240000000000002      54.560000000000002
   145   1      8.8000000000000043      43.999999999999993      52.800000000000004
   146   1      7.0400000000000054      42.240000000000002                   56.32
   147   1      7.0400000000000054      43.999999999999993      58.079999999999998
   148   1      8.8000000000000043      42.240000000000002      58.079999999999998
   149   1      8.8000000000000043      43.999999999999993                   56.32
   150   1      8.8000000000000043      42.240000000000002      61.600000000000001
   151   1      8.8000000000000043      43.999999999999993      59.839999999999996
   152   1      7.0400000000000054      47.519999999999996      36.959999999999994
   153   1      8.8000000000000043      45.759999999999998      36.959999999999994
   154   1      8.8000000000000043      47.519999999999996      35.199999999999996
   155   1      7.0400000000000054      45.759999999999998      38.719999999999999
   156   1      7.0400000000000054      47.519999999999996      40.480000000000004
   157   1      8.8000000000000043      45.759999999999998      40.480000000000004
   158   1      8.8000000000000043      47.519999999999996      38.719999999999999
   159   1      7.0400000000000054      45.759999999999998      42.240000000000002
   160   1      7.0400000000000054      47.519999999999996      43.999999999999993
   161   1      8.8000000000000043      45.759999999999998      43.999999999999993
   162   1      8.8000000000000043      47.519999999999996      42.240000000000002
   163   1      7.0400000000000054      45.759999999999998      45.759999999999998
   164   1      7.0400000000000054      47.519999999999996      47.519999999999996
   165   1      8.8000000000000043      45.759999999999998      47.519999999999996
   166   1      8.8000000000000043      47.519999999999996      45.759999999999998
   167   1      7.0400000000000054      45.759999999999998      49.279999999999994
   168   1      7.0400000000000054      47.519999999999996      51.039999999999992
   169   1      8.8000000000000043      45.759999999999998      51.039999999999992
   170   1      8.8000000000000043      47.519999999999996      49.279999999999994
   171   1      7.0400000000000054      45.759999999999998      52.800000000000004
   172   1      7.0400000000000054      47.519999999999996      54.560000000000002
   173   1      8.8000000000000043      45.759999999999998      54.560000000000002
   174   1      8.8000000000000043      47.519999999999996      52.800000000000004
   175   1      7.0400000000000054      45.759999999999998                   56.32
   176   1      7.0400000000000054      47.519999999999996      58.079999999999998
   177   1      8.8000000000000043      45.759999999999998      58.079999999999998
   178   1      8.8000000000000043      47.519999999999996                   56.32
   179   1      7.0400000000000054      45.759999999999998      59.839999999999996
   180   1      7.0400000000000054      47.519999999999996      61.600000000000001
   181   1      8.8000000000000043      45.759999999999998      61.600000000000001
   182   1      8.8000000000000043      47.519999999999996      59.839999999999996
   183   1      8.8000000000000043      47.519999999999996      63.359999999999999
   184   1      8.8000000000000043      49.279999999999994      33.440000000000005
   185   1      7.0400000000000054      49.279999999999994      35.199999999999996
   186   1      7.0400000000000054      51.039999999999992      36.959999999999994
   187   1      8.8000000000000043      49.279999999999994      36.959999999999994
   188   1      8.8000000000000043      51.039999999999992      35.199999999999996
   189   1      7.0400000000000054      49.279999999999994      38.719999999999999
   190   1      7.0400000000000054      51.039999999999992      40.480000000000004
   191   1      8.8000000000000043      49.279999999999994      40.480000000000004
   192   1      8.8000000000000043      51.039999999999992      38.719999999999999
   193   1      7.0400000000000054      49.279999999999994      42.240000000000002
   194   1      7.0400000000000054      51.039999999999992      43.999999999999993
   195   1      8.8000000000000043      49.279999999999994      43.999999999999993
   196   1      8.8000000000000043      51.039999999999992      42.240000000000002
   197   1      7.0400000000000054      49.279999999999994      45.759999999999998
   198   1      7.0400000000000054      51.039999999999992      47.519999999999996
   199   1      8.8000000000000043      49.279999999999994      47.519999999999996
   200   1      8.8000000000000043      51.039999999999992      45.759999999999998
   201   1      7.0400000000000054      49.279999999999994      49.279999999999994
   202   1      7.0400000000000054      51.039999999999992      51.039999999999992
   203   1      8.8000000000000043      49.279999999999994      51.039999999999992
   204   1      8.8000000000000043      51.039999999999992      49.279999999999994
   205   1      7.0400000000000054      49.279999999999994      52.800000000000004
   206   1      7.0400000000000054      51.039999999999992      54.560000000000002
   207   1      8.8000000000000043      49.279999999999994      54.560000000000002
   208   1      8.8000000000000043      51.039999999999992      52.800000000000004
   209   1      7.0400000000000054      49.279999999999994                   56.32
   210   1      7.0400000000000054      51.039999999999992      58.079999999999998
   211   1      8.8000000000000043      49.279999999999994      58.079999999999998
   212   1      8.8000000000000043      51.039999999999992                   56.32
   213   1      7.0400000000000054      49.279999999999994      59.839999999999996
   214   1      7.0400000000000054      51.039999999999992      61.600000000000001
   215   1      8.8000000000000043      49.279999999999994      61.600000000000001
   216   1      8.8000000000000043      51.039999999999992      59.839999999999996
   217   1      7.0400000000000054      49.279999999999994      63.359999999999999
   218   1      8.8000000000000043      49.279999999999994      65.120000000000005
   219   1      8.8000000000000043      51.039999999999992      63.359999999999999
   220   1      8.8000000000000043      52.800000000000004      36.959999999999994
   221   1      7.0400000000000054      52.800000000000004      38.719999999999999
   222   1      7.0400000000000054      54.560000000000002      40.480000000000004
   223   1      8.8000000000000043      52.800000000000004      40.480000000000004
   224   1      8.8000000000000043      54.560000000000002      38.719999999999999
   225   1      7.0400000000000054      52.800000000000004      42.240000000000002
   226   1      7.0400000000000054      54.560000000000002      43.999999999999993
   227   1      8.8000000000000043      52.800000000000004      43.999999999999993
   228   1      8.8000000000000043      54.560000000000002      42.240000000000002
   229   1      7.0400000000000054      52.800000000000004      45.759999999999998
   230   1      7.0400000000000054      54.560000000000002      47.519999999999996
   231   1      8.8000000000000043      52.800000000000004      47.519999999999996
   232   1      8.8000000000000043      54.560000000000002      45.759999999999998
   233   1      7.0400000000000054      52.800000000000004      49.279999999999994
   234   1      7.0400000000000054      54.560000000000002      51.039999999999992
   235   1      8.8000000000000043      52.800000000000004      51.039999999999992
   236   1      8.8000000000000043      54.560000000000002      49.279999999999994
   237   1      7.0400000000000054      52.800000000000004      52.800000000000004
   238   1      7.0400000000000054      54.560000000000002      54.560000000000002
   239   1      8.8000000000000043      52.800000000000004      54.560000000000002
   240   1      8.8000000000000043      54.560000000000002      52.800000000000004
   241   1      7.0400000000000054      52.800000000000004                   56.32
   242   1      7.0400000000000054      54.560000000000002      58.079999999999998
   243   1      8.8000000000000043      52.800000000000004      58.079999999999998
   244   1      8.8000000000000043      54.560000000000002                   56.32
   245   1      7.0400000000000054      52.800000000000004      59.839999999999996
   246   1      8.8000000000000043      52.800000000000004      61.600000000000001
   247   1      8.8000000000000043      54.560000000000002      59.839999999999996
   248   1      8.8000000000000043                   56.32      36.959999999999994
   249   1      8.8000000000000043                   56.32      40.480000000000004
   250   1      8.8000000000000043      58.079999999999998      38.719999999999999
   251   1      7.0400000000000054                   56.32      42.240000000000002
   252   1      7.0400000000000054      58.079999999999998      43.999999999999993
   253   1      8.8000000000000043                   56.32      43.999999999999993
   254   1      8.8000000000000043      58.079999999999998      42.240000000000002
   255   1      7.0400000000000054                   56.32      45.759999999999998
   256   1      7.0400000000000054      58.079999999999998      47.519999999999996
   257   1      8.8000000000000043                   56.32      47.519999999999996
   258   1      8.8000000000000043      58.079999999999998      45.759999999999998
   259   1      7.0400000000000054                   56.32      49.279999999999994
   260   1      7.0400000000000054      58.079999999999998      51.039999999999992
   261   1      8.8000000000000043                   56.32      51.039999999999992
   262   1      8.8000000000000043      58.079999999999998      49.279999999999994
   263   1      7.0400000000000054                   56.32      52.800000000000004
   264   1      7.0400000000000054      58.079999999999998      54.560000000000002
   265   1      8.8000000000000043                   56.32      54.560000000000002
   266   1      8.8000000000000043      58.079999999999998      52.800000000000004
   267   1      7.0400000000000054                   56.32                   56.32
   268   1      8.8000000000000043                   56.32      58.079999999999998
   269   1      8.8000000000000043      58.079999999999998                   56.32
   270   1      8.8000000000000043                   56.32      61.600000000000001
   271   1      8.8000000000000043      58.079999999999998      59.839999999999996
   272   1      8.8000000000000043      59.839999999999996      40.480000000000004
   273   1      8.8000000000000043      59.839999999999996      43.999999999999993
   274   1      8.8000000000000043      61.600000000000001      42.240000000000002
   275   1      7.0400000000000054      59.839999999999996      45.759999999999998
   276   1      7.0400000000000054      61.600000000000001      47.519999999999996
   277   1      8.8000000000000043      59.839999999999996      47.519999999999996
   278   1      8.8000000000000043      61.600000000000001      45.759999999999998
   279   1      7.0400000000000054      59.839999999999996      49.279999999999994
   280   1      7.0400000000000054      61.600000000000001      51.039999999999992
   281   1      8.8000000000000043      59.839999999999996      51.039999999999992
   282   1      8.8000000000000043      61.600000000000001      49.279999999999994
   283   1      7.0400000000000054      59.839999999999996      52.800000000000004
   284   1      8.8000000000000043      59.839999999999996      54.560000000000002
   285   1      8.8000000000000043      61.600000000000001      52.800000000000004
   286   1      8.8000000000000043      59.839999999999996      58.079999999999998
   287   1      8.8000000000000043      61.600000000000001                   56.32
   288   1      8.8000000000000043      63.359999999999999      47.519999999999996
   289   1      7.0400000000000054      63.359999999999999      49.279999999999994
   290   1      8.8000000000000043      63.359999999999999      51.039999999999992
   291   1      8.8000000000000043      65.120000000000005      49.279999999999994
   292   1      12.320000000000006      26.400000000000002      49.279999999999994
   293   1      12.320000000000006                   28.16      47.519999999999996
   294   1      12.320000000000006      29.919999999999998      45.759999999999998
   295   1      12.320000000000006                   28.16      51.039999999999992
   296   1      12.320000000000006      29.919999999999998      49.279999999999994
   297   1      12.320000000000006      29.919999999999998      52.800000000000004
   298   1      12.320000000000006      33.440000000000005      38.719999999999999
   299   1      10.560000000000002      33.440000000000005      43.999999999999993
   300   1      12.320000000000006      31.680000000000003      43.999999999999993
   301   1      12.320000000000006      33.440000000000005      42.240000000000002
   302   1      10.560000000000002      31.680000000000003      45.759999999999998
   303   1      10.560000000000002      33.440000000000005      47.519999999999996
   304   1      12.320000000000006      31.680000000000003      47.519999999999996
   305   1      12.320000000000006      33.440000000000005      45.759999999999998
   306   1      10.560000000000002      31.680000000000003      49.279999999999994
   307   1      10.560000000000002      33.440000000000005      51.039999999999992
   308   1      12.320000000000006      31.680000000000003      51.039999999999992
   309   1      12.320000000000006      33.440000000000005      49.279999999999994
   310   1      10.560000000000002      31.680000000000003      52.800000000000004
   311   1      10.560000000000002      33.440000000000005      54.560000000000002
   312   1      12.320000000000006      31.680000000000003      54.560000000000002
   313   1      12.320000000000006      33.440000000000005      52.800000000000004
   314   1      12.320000000000006      33.440000000000005                   56.32
   315   1      12.320000000000006      33.440000000000005      59.839999999999996
   316   1      12.320000000000006      35.199999999999996      36.959999999999994
   317   1      12.320000000000006      36.959999999999994      35.199999999999996
   318   1      10.560000000000002      36.959999999999994      40.480000000000004
   319   1      12.320000000000006      35.199999999999996      40.480000000000004
   320   1      12.320000000000006      36.959999999999994      38.719999999999999
   321   1      10.560000000000002      35.199999999999996      42.240000000000002
   322   1      10.560000000000002      36.959999999999994      43.999999999999993
   323   1      12.320000000000006      35.199999999999996      43.999999999999993
   324   1      12.320000000000006      36.959999999999994      42.240000000000002
   325   1      10.560000000000002      35.199999999999996      45.759999999999998
   326   1      10.560000000000002      36.959999999999994      47.519999999999996
   327   1      12.320000000000006      35.199999999999996      47.519999999999996
   328   1      12.320000000000006      36.959999999999994      45.759999999999998
   329   1      10.560000000000002      35.199999999999996      49.279999999999994
   330   1      10.560000000000002      36.959999999999994      51.039999999999992
   331   1      12.320000000000006      35.199999999999996      51.039999999999992
   332   1      12.320000000000006      36.959999999999994      49.279999999999994
   333   1      10.560000000000002      35.199999999999996      52.800000000000004
   334   1      10.560000000000002      36.959999999999994      54.560000000000002
   335   1      12.320000000000006      35.199999999999996      54.560000000000002
   336   1      12.320000000000006      36.959999999999994      52.800000000000004
   337   1      10.560000000000002      35.199999999999996                   56.32
   338   1      10.560000000000002      36.959999999999994      58.079999999999998
   339   1      12.320000000000006      35.199999999999996      58.079999999999998
   340   1      12.320000000000006      36.959999999999994                   56.32
   341   1      12.320000000000006      35.199999999999996      61.600000000000001
   342   1      12.320000000000006      36.959999999999994      59.839999999999996
   343   1      12.320000000000006      36.959999999999994      63.359999999999999
   344   1      12.320000000000006      38.719999999999999      33.440000000000005
   345   1      10.560000000000002      40.480000000000004      36.959999999999994
   346   1      12.320000000000006      38.719999999999999      36.959999999999994
   347   1      12.320000000000006      40.480000000000004      35.199999999999996
   348   1      10.560000000000002      38.719999999999999      38.719999999999999
   349   1      10.560000000000002      40.480000000000004      40.480000000000004
   350   1      12.320000000000006      38.719999999999999      40.480000000000004
   351   1      12.320000000000006      40.480000000000004      38.719999999999999
   352   1      10.560000000000002      38.719999999999999      42.240000000000002
   353   1      10.560000000000002      40.480000000000004      43.999999999999993
   354   1      12.320000000000006      38.719999999999999      43.999999999999993
   355   1      12.320000000000006      40.480000000000004      42.240000000000002
   356   1      10.560000000000002      38.719999999999999      45.759999999999998
   357   1      10.560000000000002      40.480000000000004      47.519999999999996
   358   1      12.320000000000006      38.719999999999999      47.519999999999996