model_files/Fe/Fe_30000/Fe_520/data.Fe_520_fcc_30183 (written by ASE) 

30183 	 atoms 
1  atom types
0.0                      86  xlo xhi
0.0                      86  ylo yhi
0.0                      86  zlo zhi


Atoms 

     1   1      1.4349999999999952       38.74499999999999       38.74499999999999
     2   1      1.4349999999999952       38.74499999999999      41.614999999999995
     3   1      1.4349999999999952       38.74499999999999      44.484999999999992
     4   1      1.4349999999999952       38.74499999999999      47.354999999999983
     5   1      1.4349999999999952      41.614999999999995       38.74499999999999
     6   1      85.999999999999986      40.179999999999993      40.179999999999993
     7   1      1.4349999999999952      41.614999999999995      41.614999999999995
     8   1      85.999999999999986      40.179999999999993       43.04999999999999
     9   1      1.4349999999999952      41.614999999999995      44.484999999999992
    10   1      85.999999999999986      40.179999999999993      45.919999999999987
    11   1      1.4349999999999952      41.614999999999995      47.354999999999983
    12   1      1.4349999999999952      44.484999999999992       38.74499999999999
    13   1      85.999999999999986       43.04999999999999      40.179999999999993
    14   1      1.4349999999999952      44.484999999999992      41.614999999999995
    15   1      85.999999999999986       43.04999999999999       43.04999999999999
    16   1      1.4349999999999952      44.484999999999992      44.484999999999992
    17   1      85.999999999999986       43.04999999999999      45.919999999999987
    18   1      1.4349999999999952      44.484999999999992      47.354999999999983
    19   1      1.4349999999999952      47.354999999999983       38.74499999999999
    20   1      85.999999999999986      45.919999999999987      40.179999999999993
    21   1      1.4349999999999952      47.354999999999983      41.614999999999995
    22   1      85.999999999999986      45.919999999999987       43.04999999999999
    23   1      1.4349999999999952      47.354999999999983      44.484999999999992
    24   1      85.999999999999986      45.919999999999987      45.919999999999987
    25   1      1.4349999999999952      47.354999999999983      47.354999999999983
    26   1      4.3049999999999926      30.134999999999987      30.134999999999987
    27   1      4.3049999999999926      30.134999999999987      33.004999999999995
    28   1      4.3049999999999926      30.134999999999987      35.874999999999993
    29   1      4.3049999999999926      30.134999999999987       38.74499999999999
    30   1      4.3049999999999926      30.134999999999987      41.614999999999995
    31   1      4.3049999999999926      30.134999999999987      44.484999999999992
    32   1      4.3049999999999926      30.134999999999987      47.354999999999983
    33   1      4.3049999999999926      30.134999999999987      50.224999999999994
    34   1      4.3049999999999926      30.134999999999987      53.094999999999985
    35   1      4.3049999999999926      30.134999999999987      55.964999999999989
    36   1      4.3049999999999926      33.004999999999995      30.134999999999987
    37   1      4.3049999999999926      33.004999999999995      33.004999999999995
    38   1      4.3049999999999926      33.004999999999995      35.874999999999993
    39   1      4.3049999999999926      33.004999999999995       38.74499999999999
    40   1      4.3049999999999926      33.004999999999995      41.614999999999995
    41   1      4.3049999999999926      33.004999999999995      44.484999999999992
    42   1      4.3049999999999926      33.004999999999995      47.354999999999983
    43   1      4.3049999999999926      33.004999999999995      50.224999999999994
    44   1      4.3049999999999926      33.004999999999995      53.094999999999985
    45   1      4.3049999999999926      33.004999999999995      55.964999999999989
    46   1      4.3049999999999926      35.874999999999993      30.134999999999987
    47   1      4.3049999999999926      35.874999999999993      33.004999999999995
    48   1      2.8699999999999974      34.439999999999991      34.439999999999991
    49   1      4.3049999999999926      35.874999999999993      35.874999999999993
    50   1      2.8699999999999974      34.439999999999991      37.309999999999988
    51   1      4.3049999999999926      35.874999999999993       38.74499999999999
    52   1      2.8699999999999974      34.439999999999991      40.179999999999993
    53   1      4.3049999999999926      35.874999999999993      41.614999999999995
    54   1      2.8699999999999974      34.439999999999991       43.04999999999999
    55   1      4.3049999999999926      35.874999999999993      44.484999999999992
    56   1      2.8699999999999974      34.439999999999991      45.919999999999987
    57   1      4.3049999999999926      35.874999999999993      47.354999999999983
    58   1      2.8699999999999974      34.439999999999991      48.789999999999992
    59   1      4.3049999999999926      35.874999999999993      50.224999999999994
    60   1      2.8699999999999974      34.439999999999991      51.659999999999989
    61   1      4.3049999999999926      35.874999999999993      53.094999999999985
    62   1      4.3049999999999926      35.874999999999993      55.964999999999989
    63   1      4.3049999999999926       38.74499999999999      30.134999999999987
    64   1      4.3049999999999926       38.74499999999999      33.004999999999995
    65   1      2.8699999999999974      37.309999999999988      34.439999999999991
    66   1      4.3049999999999926       38.74499999999999      35.874999999999993
    67   1      2.8699999999999974      37.309999999999988      37.309999999999988
    68   1      4.3049999999999926       38.74499999999999       38.74499999999999
    69   1      2.8699999999999974      37.309999999999988      40.179999999999993
    70   1      4.3049999999999926       38.74499999999999      41.614999999999995
    71   1      2.8699999999999974      37.309999999999988       43.04999999999999
    72   1      4.3049999999999926       38.74499999999999      44.484999999999992
    73   1      2.8699999999999974      37.309999999999988      45.919999999999987
    74   1      4.3049999999999926       38.74499999999999      47.354999999999983
    75   1      2.8699999999999974      37.309999999999988      48.789999999999992
    76   1      4.3049999999999926       38.74499999999999      50.224999999999994
    77   1      2.8699999999999974      37.309999999999988      51.659999999999989
    78   1      4.3049999999999926       38.74499999999999      53.094999999999985
    79   1      4.3049999999999926       38.74499999999999      55.964999999999989
    80   1      4.3049999999999926      41.614999999999995      30.134999999999987
    81   1      4.3049999999999926      41.614999999999995      33.004999999999995
    82   1      2.8699999999999974      40.179999999999993      34.439999999999991
    83   1      4.3049999999999926      41.614999999999995      35.874999999999993
    84   1      2.8699999999999974      40.179999999999993      37.309999999999988
    85   1      4.3049999999999926      41.614999999999995       38.74499999999999
    86   1      2.8699999999999974      40.179999999999993      40.179999999999993
    87   1      4.3049999999999926      41.614999999999995      41.614999999999995
    88   1      2.8699999999999974      40.179999999999993       43.04999999999999
    89   1      4.3049999999999926      41.614999999999995      44.484999999999992
    90   1      2.8699999999999974      40.179999999999993      45.919999999999987
    91   1      4.3049999999999926      41.614999999999995      47.354999999999983
    92   1      2.8699999999999974      40.179999999999993      48.789999999999992
    93   1      4.3049999999999926      41.614999999999995      50.224999999999994
    94   1      2.8699999999999974      40.179999999999993      51.659999999999989
    95   1      4.3049999999999926      41.614999999999995      53.094999999999985
    96   1      4.3049999999999926      41.614999999999995      55.964999999999989
    97   1      4.3049999999999926      44.484999999999992      30.134999999999987
    98   1      4.3049999999999926      44.484999999999992      33.004999999999995
    99   1      2.8699999999999974       43.04999999999999      34.439999999999991
   100   1      4.3049999999999926      44.484999999999992      35.874999999999993
   101   1      2.8699999999999974       43.04999999999999      37.309999999999988
   102   1      4.3049999999999926      44.484999999999992       38.74499999999999
   103   1      2.8699999999999974       43.04999999999999      40.179999999999993
   104   1      4.3049999999999926      44.484999999999992      41.614999999999995
   105   1      2.8699999999999974       43.04999999999999       43.04999999999999
   106   1      4.3049999999999926      44.484999999999992      44.484999999999992
   107   1      2.8699999999999974       43.04999999999999      45.919999999999987
   108   1      4.3049999999999926      44.484999999999992      47.354999999999983
   109   1      2.8699999999999974       43.04999999999999      48.789999999999992
   110   1      4.3049999999999926      44.484999999999992      50.224999999999994
   111   1      2.8699999999999974       43.04999999999999      51.659999999999989
   112   1      4.3049999999999926      44.484999999999992      53.094999999999985
   113   1      4.3049999999999926      44.484999999999992      55.964999999999989
   114   1      4.3049999999999926      47.354999999999983      30.134999999999987
   115   1      4.3049999999999926      47.354999999999983      33.004999999999995
   116   1      2.8699999999999974      45.919999999999987      34.439999999999991
   117   1      4.3049999999999926      47.354999999999983      35.874999999999993
   118   1      2.8699999999999974      45.919999999999987      37.309999999999988
   119   1      4.3049999999999926      47.354999999999983       38.74499999999999
   120   1      2.8699999999999974      45.919999999999987      40.179999999999993
   121   1      4.3049999999999926      47.354999999999983      41.614999999999995
   122   1      2.8699999999999974      45.919999999999987       43.04999999999999
   123   1      4.3049999999999926      47.354999999999983      44.484999999999992
   124   1      2.8699999999999974      45.919999999999987      45.919999999999987
   125   1      4.3049999999999926      47.354999999999983      47.354999999999983
   126   1      2.8699999999999974      45.919999999999987      48.789999999999992
   127   1      4.3049999999999926      47.354999999999983      50.224999999999994
   128   1      2.8699999999999974      45.919999999999987      51.659999999999989
   129   1      4.3049999999999926      47.354999999999983      53.094999999999985
   130   1      4.3049999999999926      47.354999999999983      55.964999999999989
   131   1      4.3049999999999926      50.224999999999994      30.134999999999987
   132   1      4.3049999999999926      50.224999999999994      33.004999999999995
   133   1      2.8699999999999974      48.789999999999992      34.439999999999991
   134   1      4.3049999999999926      50.224999999999994      35.874999999999993
   135   1      2.8699999999999974      48.789999999999992      37.309999999999988
   136   1      4.3049999999999926      50.224999999999994       38.74499999999999
   137   1      2.8699999999999974      48.789999999999992      40.179999999999993
   138   1      4.3049999999999926      50.224999999999994      41.614999999999995
   139   1      2.8699999999999974      48.789999999999992       43.04999999999999
   140   1      4.3049999999999926      50.224999999999994      44.484999999999992
   141   1      2.8699999999999974      48.789999999999992      45.919999999999987
   142   1      4.3049999999999926      50.224999999999994      47.354999999999983
   143   1      2.8699999999999974      48.789999999999992      48.789999999999992
   144   1      4.3049999999999926      50.224999999999994      50.224999999999994
   145   1      2.8699999999999974      48.789999999999992      51.659999999999989
   146   1      4.3049999999999926      50.224999999999994      53.094999999999985
   147   1      4.3049999999999926      50.224999999999994      55.964999999999989
   148   1      4.3049999999999926      53.094999999999985      30.134999999999987
   149   1      4.3049999999999926      53.094999999999985      33.004999999999995
   150   1      2.8699999999999974      51.659999999999989      34.439999999999991
   151   1      4.3049999999999926      53.094999999999985      35.874999999999993
   152   1      2.8699999999999974      51.659999999999989      37.309999999999988
   153   1      4.3049999999999926      53.094999999999985       38.74499999999999
   154   1      2.8699999999999974      51.659999999999989      40.179999999999993
   155   1      4.3049999999999926      53.094999999999985      41.614999999999995
   156   1      2.8699999999999974      51.659999999999989       43.04999999999999
   157   1      4.3049999999999926      53.094999999999985      44.484999999999992
   158   1      2.8699999999999974      51.659999999999989      45.919999999999987
   159   1      4.3049999999999926      53.094999999999985      47.354999999999983
   160   1      2.8699999999999974      51.659999999999989      48.789999999999992
   161   1      4.3049999999999926      53.094999999999985      50.224999999999994
   162   1      2.8699999999999974      51.659999999999989      51.659999999999989
   163   1      4.3049999999999926      53.094999999999985      53.094999999999985
   164   1      4.3049999999999926      53.094999999999985      55.964999999999989
   165   1      4.3049999999999926      55.964999999999989      30.134999999999987
   166   1      4.3049999999999926      55.964999999999989      33.004999999999995
   167   1      4.3049999999999926      55.964999999999989      35.874999999999993
   168   1      4.3049999999999926      55.964999999999989       38.74499999999999
   169   1      4.3049999999999926      55.964999999999989      41.614999999999995
   170   1      4.3049999999999926      55.964999999999989      44.484999999999992
   171   1      4.3049999999999926      55.964999999999989      47.354999999999983
   172   1      4.3049999999999926      55.964999999999989      50.224999999999994
   173   1      4.3049999999999926      55.964999999999989      53.094999999999985
   174   1      4.3049999999999926      55.964999999999989      55.964999999999989
   175   1      7.1749999999999972      24.394999999999989      24.394999999999989
   176   1      7.1749999999999972      24.394999999999989      27.264999999999993
   177   1      7.1749999999999972      24.394999999999989      30.134999999999987
   178   1      7.1749999999999972      24.394999999999989      33.004999999999995
   179   1      7.1749999999999972      24.394999999999989      35.874999999999993
   180   1      7.1749999999999972      24.394999999999989       38.74499999999999
   181   1      7.1749999999999972      24.394999999999989      41.614999999999995
   182   1      7.1749999999999972      24.394999999999989      44.484999999999992
   183   1      7.1749999999999972      24.394999999999989      47.354999999999983
   184   1      7.1749999999999972      24.394999999999989      50.224999999999994
   185   1      7.1749999999999972      24.394999999999989      53.094999999999985
   186   1      7.1749999999999972      24.394999999999989      55.964999999999989
   187   1      7.1749999999999972      24.394999999999989      58.834999999999994
   188   1      7.1749999999999972      24.394999999999989      61.704999999999984
   189   1      7.1749999999999972      27.264999999999993      24.394999999999989
   190   1      5.7399999999999949      25.829999999999991      25.829999999999991
   191   1      7.1749999999999972      27.264999999999993      27.264999999999993
   192   1      5.7399999999999949      25.829999999999991      28.699999999999992
   193   1      7.1749999999999972      27.264999999999993      30.134999999999987
   194   1      5.7399999999999949      25.829999999999991      31.569999999999993
   195   1      7.1749999999999972      27.264999999999993      33.004999999999995
   196   1      5.7399999999999949      25.829999999999991      34.439999999999991
   197   1      7.1749999999999972      27.264999999999993      35.874999999999993
   198   1      5.7399999999999949      25.829999999999991      37.309999999999988
   199   1      7.1749999999999972      27.264999999999993       38.74499999999999
   200   1      5.7399999999999949      25.829999999999991      40.179999999999993
   201   1      7.1749999999999972      27.264999999999993      41.614999999999995
   202   1      5.7399999999999949      25.829999999999991       43.04999999999999
   203   1      7.1749999999999972      27.264999999999993      44.484999999999992
   204   1      5.7399999999999949      25.829999999999991      45.919999999999987
   205   1      7.1749999999999972      27.264999999999993      47.354999999999983
   206   1      5.7399999999999949      25.829999999999991      48.789999999999992
   207   1      7.1749999999999972      27.264999999999993      50.224999999999994
   208   1      5.7399999999999949      25.829999999999991      51.659999999999989
   209   1      7.1749999999999972      27.264999999999993      53.094999999999985
   210   1      5.7399999999999949      25.829999999999991      54.529999999999987
   211   1      7.1749999999999972      27.264999999999993      55.964999999999989
   212   1      5.7399999999999949      25.829999999999991      57.399999999999991
   213   1      7.1749999999999972      27.264999999999993      58.834999999999994
   214   1      5.7399999999999949      25.829999999999991      60.269999999999989
   215   1      7.1749999999999972      27.264999999999993      61.704999999999984
   216   1      7.1749999999999972      30.134999999999987      24.394999999999989
   217   1      5.7399999999999949      28.699999999999992      25.829999999999991
   218   1      7.1749999999999972      30.134999999999987      27.264999999999993
   219   1      5.7399999999999949      28.699999999999992      28.699999999999992
   220   1      7.1749999999999972      30.134999999999987      30.134999999999987
   221   1      5.7399999999999949      28.699999999999992      31.569999999999993
   222   1      7.1749999999999972      30.134999999999987      33.004999999999995
   223   1      5.7399999999999949      28.699999999999992      34.439999999999991
   224   1      7.1749999999999972      30.134999999999987      35.874999999999993
   225   1      5.7399999999999949      28.699999999999992      37.309999999999988
   226   1      7.1749999999999972      30.134999999999987       38.74499999999999
   227   1      5.7399999999999949      28.699999999999992      40.179999999999993
   228   1      7.1749999999999972      30.134999999999987      41.614999999999995
   229   1      5.7399999999999949      28.699999999999992       43.04999999999999
   230   1      7.1749999999999972      30.134999999999987      44.484999999999992
   231   1      5.7399999999999949      28.699999999999992      45.919999999999987
   232   1      7.1749999999999972      30.134999999999987      47.354999999999983
   233   1      5.7399999999999949      28.699999999999992      48.789999999999992
   234   1      7.1749999999999972      30.134999999999987      50.224999999999994
   235   1      5.7399999999999949      28.699999999999992      51.659999999999989
   236   1      7.1749999999999972      30.134999999999987      53.094999999999985
   237   1      5.7399999999999949      28.699999999999992      54.529999999999987
   238   1      7.1749999999999972      30.134999999999987      55.964999999999989
   239   1      5.7399999999999949      28.699999999999992      57.399999999999991
   240   1      7.1749999999999972      30.134999999999987      58.834999999999994
   241   1      5.7399999999999949      28.699999999999992      60.269999999999989
   242   1      7.1749999999999972      30.134999999999987      61.704999999999984
   243   1      7.1749999999999972      33.004999999999995      24.394999999999989
   244   1      5.7399999999999949      31.569999999999993      25.829999999999991
   245   1      7.1749999999999972      33.004999999999995      27.264999999999993
   246   1      5.7399999999999949      31.569999999999993      28.699999999999992
   247   1      7.1749999999999972      33.004999999999995      30.134999999999987
   248   1      5.7399999999999949      31.569999999999993      31.569999999999993
   249   1      7.1749999999999972      33.004999999999995      33.004999999999995
   250   1      5.7399999999999949      31.569999999999993      34.439999999999991
   251   1      7.1749999999999972      33.004999999999995      35.874999999999993
   252   1      5.7399999999999949      31.569999999999993      37.309999999999988
   253   1      7.1749999999999972      33.004999999999995       38.74499999999999
   254   1      5.7399999999999949      31.569999999999993      40.179999999999993
   255   1      7.1749999999999972      33.004999999999995      41.614999999999995
   256   1      5.7399999999999949      31.569999999999993       43.04999999999999
   257   1      7.1749999999999972      33.004999999999995      44.484999999999992
   258   1      5.7399999999999949      31.569999999999993      45.919999999999987
   259   1      7.1749999999999972      33.004999999999995      47.354999999999983
   260   1      5.7399999999999949      31.569999999999993      48.789999999999992
   261   1      7.1749999999999972      33.004999999999995      50.224999999999994
   262   1      5.7399999999999949      31.569999999999993      51.659999999999989
   263   1      7.1749999999999972      33.004999999999995      53.094999999999985
   264   1      5.7399999999999949      31.569999999999993      54.529999999999987
   265   1      7.1749999999999972      33.004999999999995      55.964999999999989
   266   1      5.7399999999999949      31.569999999999993      57.399999999999991
   267   1      7.1749999999999972      33.004999999999995      58.834999999999994
   268   1      5.7399999999999949      31.569999999999993      60.269999999999989
   269   1      7.1749999999999972      33.004999999999995      61.704999999999984
   270   1      7.1749999999999972      35.874999999999993      24.394999999999989
   271   1      5.7399999999999949      34.439999999999991      25.829999999999991
   272   1      7.1749999999999972      35.874999999999993      27.264999999999993
   273   1      5.7399999999999949      34.439999999999991      28.699999999999992
   274   1      7.1749999999999972      35.874999999999993      30.134999999999987
   275   1      5.7399999999999949      34.439999999999991      31.569999999999993
   276   1      7.1749999999999972      35.874999999999993      33.004999999999995
   277   1      5.7399999999999949      34.439999999999991      34.439999999999991
   278   1      7.1749999999999972      35.874999999999993      35.874999999999993
   279   1      5.7399999999999949      34.439999999999991      37.309999999999988
   280   1      7.1749999999999972      35.874999999999993       38.74499999999999
   281   1      5.7399999999999949      34.439999999999991      40.179999999999993
   282   1      7.1749999999999972      35.874999999999993      41.614999999999995
   283   1      5.7399999999999949      34.439999999999991       43.04999999999999
   284   1      7.1749999999999972      35.874999999999993      44.484999999999992
   285   1      5.7399999999999949      34.439999999999991      45.919999999999987
   286   1      7.1749999999999972      35.874999999999993      47.354999999999983
   287   1      5.7399999999999949      34.439999999999991      48.789999999999992
   288   1      7.1749999999999972      35.874999999999993      50.224999999999994
   289   1      5.7399999999999949      34.439999999999991      51.659999999999989
   290   1      7.1749999999999972      35.874999999999993      53.094999999999985
   291   1      5.7399999999999949      34.439999999999991      54.529999999999987
   292   1      7.1749999999999972      35.874999999999993      55.964999999999989
   293   1      5.7399999999999949      34.439999999999991      57.399999999999991
   294   1      7.1749999999999972      35.874999999999993      58.834999999999994
   295   1      5.7399999999999949      34.439999999999991      60.269999999999989
   296   1      7.1749999999999972      35.874999999999993      61.704999999999984
   297   1      7.1749999999999972       38.74499999999999      24.394999999999989
   298   1      5.7399999999999949      37.309999999999988      25.829999999999991
   299   1      7.1749999999999972       38.74499999999999      27.264999999999993
   300   1      5.7399999999999949      37.309999999999988      28.699999999999992
   301   1      7.1749999999999972       38.74499999999999      30.134999999999987
   302   1      5.7399999999999949      37.309999999999988      31.569999999999993
   303   1      7.1749999999999972       38.74499999999999      33.004999999999995
   304   1      5.7399999999999949      37.309999999999988      34.439999999999991
   305   1      7.1749999999999972       38.74499999999999      35.874999999999993
   306   1      5.7399999999999949      37.309999999999988      37.309999999999988
   307   1      7.1749999999999972       38.74499999999999       38.74499999999999
   308   1      5.7399999999999949      37.309999999999988      40.179999999999993
   309   1      7.1749999999999972       38.74499999999999      41.614999999999995
   310   1      5.7399999999999949      37.309999999999988       43.04999999999999
   311   1      7.1749999999999972       38.74499999999999      44.484999999999992
   312   1      5.7399999999999949      37.309999999999988      45.919999999999987
   313   1      7.1749999999999972       38.74499999999999      47.354999999999983
   314   1      5.7399999999999949      37.309999999999988      48.789999999999992
   315   1      7.1749999999999972       38.74499999999999      50.224999999999994
   316   1      5.7399999999999949      37.309999999999988      51.659999999999989
   317   1      7.1749999999999972       38.74499999999999      53.094999999999985
   318   1      5.7399999999999949      37.309999999999988      54.529999999999987
   319   1      7.1749999999999972       38.74499999999999      55.964999999999989
   320   1      5.7399999999999949      37.309999999999988      57.399999999999991
   321   1      7.1749999999999972       38.74499999999999      58.834999999999994
   322   1      5.7399999999999949      37.309999999999988      60.269999999999989
   323   1      7.1749999999999972       38.74499999999999      61.704999999999984
   324   1      7.1749999999999972      41.614999999999995      24.394999999999989
   325   1      5.7399999999999949      40.179999999999993      25.829999999999991
   326   1      7.1749999999999972      41.614999999999995      27.264999999999993
   327   1      5.7399999999999949      40.179999999999993      28.699999999999992
   328   1      7.1749999999999972      41.614999999999995      30.134999999999987
   329   1      5.7399999999999949      40.179999999999993      31.569999999999993
   330   1      7.1749999999999972      41.614999999999995      33.004999999999995
   331   1      5.7399999999999949      40.179999999999993      34.439999999999991
   332   1      7.1749999999999972      41.614999999999995      35.874999999999993
   333   1      5.7399999999999949      40.179999999999993      37.309999999999988
   334   1      7.1749999999999972      41.614999999999995       38.74499999999999
   335   1      5.7399999999999949      40.179999999999993      40.179999999999993
   336   1      7.1749999999999972      41.614999999999995      41.614999999999995
   337   1      5.7399999999999949      40.179999999999993       43.04999999999999
   338   1      7.1749999999999972      41.614999999999995      44.484999999999992
   339   1      5.7399999999999949      40.179999999999993      45.919999999999987
   340   1      7.1749999999999972      41.614999999999995      47.354999999999983
   341   1      5.7399999999999949      40.179999999999993      48.789999999999992
   342   1      7.1749999999999972      41.614999999999995      50.224999999999994
   343   1      5.7399999999999949      40.179999999999993      51.659999999999989
   344   1      7.1749999999999972      41.614999999999995      53.094999999999985
   345   1      5.7399999999999949      40.179999999999993      54.529999999999987
   346   1      7.1749999999999972      41.614999999999995      55.964999999999989
   347   1      5.7399999999999949      40.179999999999993      57.399999999999991
   348   1      7.1749999999999972      41.614999999999995      58.834999999999994
   349   1      5.7399999999999949      40.179999999999993      60.269999999999989
   350   1      7.1749999999999972      41.614999999999995      61.704999999999984
   351   1      7.1749999999999972      44.484999999999992      24.394999999999989
   352   1      5.7399999999999949       43.04999999999999      25.829999999999991
   353   1      7.1749999999999972      44.484999999999992      27.264999999999993
   354   1      5.7399999999999949       43.04999999999999      28.699999999999992
   355   1      7.1749999999999972      44.484999999999992      30.134999999999987
   356   1      5.7399999999999949       43.04999999999999      31.569999999999993
   357   1      7.1749999999999972      44.484999999999992      33.004999999999995
   358   1      5.7399999999999949       43.04999999999999      34.439999999999991