model_files/Au/Au_30000/Au_431/data.Au_431_fcc_29685 (written by ASE) 

29685 	 atoms 
1  atom types
0.0                     114  xlo xhi
0.0                     114  ylo yhi
0.0                     114  zlo zhi


Atoms 

     1   1      2.0399999999999991      50.999999999999993      57.120000000000005
     2   1                       0      55.079999999999998      55.079999999999998
     3   1      2.0399999999999991      53.040000000000006      55.079999999999998
     4   1      2.0399999999999991      55.079999999999998      53.040000000000006
     5   1                       0      53.040000000000006      57.120000000000005
     6   1                       0      55.079999999999998      59.159999999999997
     7   1      2.0399999999999991      53.040000000000006      59.159999999999997
     8   1      2.0399999999999991      55.079999999999998      57.120000000000005
     9   1      2.0399999999999991      55.079999999999998      61.200000000000003
    10   1      2.0399999999999991      57.120000000000005      50.999999999999993
    11   1                       0      57.120000000000005      53.040000000000006
    12   1                       0      59.159999999999997      55.079999999999998
    13   1      2.0399999999999991      57.120000000000005      55.079999999999998
    14   1      2.0399999999999991      59.159999999999997      53.040000000000006
    15   1                       0      57.120000000000005      57.120000000000005
    16   1                       0      59.159999999999997      59.159999999999997
    17   1      2.0399999999999991      57.120000000000005      59.159999999999997
    18   1      2.0399999999999991      59.159999999999997      57.120000000000005
    19   1                       0      57.120000000000005      61.200000000000003
    20   1      2.0399999999999991      57.120000000000005      63.240000000000002
    21   1      2.0399999999999991      59.159999999999997      61.200000000000003
    22   1      2.0399999999999991      61.200000000000003      55.079999999999998
    23   1                       0      61.200000000000003      57.120000000000005
    24   1      2.0399999999999991      61.200000000000003      59.159999999999997
    25   1      2.0399999999999991      63.240000000000002      57.120000000000005
    26   1      6.1200000000000045      46.920000000000002      53.040000000000006
    27   1      6.1200000000000045      46.920000000000002      57.120000000000005
    28   1      6.1200000000000045      46.920000000000002      61.200000000000003
    29   1      4.0799999999999983      50.999999999999993      50.999999999999993
    30   1      6.1200000000000045      48.959999999999994      50.999999999999993
    31   1      6.1200000000000045      50.999999999999993      48.959999999999994
    32   1      4.0799999999999983      48.959999999999994      53.040000000000006
    33   1      4.0799999999999983      50.999999999999993      55.079999999999998
    34   1      6.1200000000000045      48.959999999999994      55.079999999999998
    35   1      6.1200000000000045      50.999999999999993      53.040000000000006
    36   1      4.0799999999999983      48.959999999999994      57.120000000000005
    37   1      4.0799999999999983      50.999999999999993      59.159999999999997
    38   1      6.1200000000000045      48.959999999999994      59.159999999999997
    39   1      6.1200000000000045      50.999999999999993      57.120000000000005
    40   1      4.0799999999999983      48.959999999999994      61.200000000000003
    41   1      4.0799999999999983      50.999999999999993      63.240000000000002
    42   1      6.1200000000000045      48.959999999999994      63.240000000000002
    43   1      6.1200000000000045      50.999999999999993      61.200000000000003
    44   1      6.1200000000000045      50.999999999999993      65.280000000000001
    45   1      6.1200000000000045      53.040000000000006      46.920000000000002
    46   1      4.0799999999999983      53.040000000000006      48.959999999999994
    47   1      4.0799999999999983      55.079999999999998      50.999999999999993
    48   1      6.1200000000000045      53.040000000000006      50.999999999999993
    49   1      6.1200000000000045      55.079999999999998      48.959999999999994
    50   1      4.0799999999999983      53.040000000000006      53.040000000000006
    51   1      4.0799999999999983      55.079999999999998      55.079999999999998
    52   1      6.1200000000000045      53.040000000000006      55.079999999999998
    53   1      6.1200000000000045      55.079999999999998      53.040000000000006
    54   1      4.0799999999999983      53.040000000000006      57.120000000000005
    55   1      4.0799999999999983      55.079999999999998      59.159999999999997
    56   1      6.1200000000000045      53.040000000000006      59.159999999999997
    57   1      6.1200000000000045      55.079999999999998      57.120000000000005
    58   1      4.0799999999999983      53.040000000000006      61.200000000000003
    59   1      4.0799999999999983      55.079999999999998      63.240000000000002
    60   1      6.1200000000000045      53.040000000000006      63.240000000000002
    61   1      6.1200000000000045      55.079999999999998      61.200000000000003
    62   1      4.0799999999999983      53.040000000000006      65.280000000000001
    63   1      6.1200000000000045      53.040000000000006      67.319999999999993
    64   1      6.1200000000000045      55.079999999999998      65.280000000000001
    65   1      6.1200000000000045      57.120000000000005      46.920000000000002
    66   1      4.0799999999999983      57.120000000000005      48.959999999999994
    67   1      4.0799999999999983      59.159999999999997      50.999999999999993
    68   1      6.1200000000000045      57.120000000000005      50.999999999999993
    69   1      6.1200000000000045      59.159999999999997      48.959999999999994
    70   1      4.0799999999999983      57.120000000000005      53.040000000000006
    71   1      4.0799999999999983      59.159999999999997      55.079999999999998
    72   1      6.1200000000000045      57.120000000000005      55.079999999999998
    73   1      6.1200000000000045      59.159999999999997      53.040000000000006
    74   1      4.0799999999999983      57.120000000000005      57.120000000000005
    75   1      4.0799999999999983      59.159999999999997      59.159999999999997
    76   1      6.1200000000000045      57.120000000000005      59.159999999999997
    77   1      6.1200000000000045      59.159999999999997      57.120000000000005
    78   1      4.0799999999999983      57.120000000000005      61.200000000000003
    79   1      4.0799999999999983      59.159999999999997      63.240000000000002
    80   1      6.1200000000000045      57.120000000000005      63.240000000000002
    81   1      6.1200000000000045      59.159999999999997      61.200000000000003
    82   1      4.0799999999999983      57.120000000000005      65.280000000000001
    83   1      6.1200000000000045      57.120000000000005      67.319999999999993
    84   1      6.1200000000000045      59.159999999999997      65.280000000000001
    85   1      6.1200000000000045      61.200000000000003      46.920000000000002
    86   1      4.0799999999999983      61.200000000000003      48.959999999999994
    87   1      4.0799999999999983      63.240000000000002      50.999999999999993
    88   1      6.1200000000000045      61.200000000000003      50.999999999999993
    89   1      6.1200000000000045      63.240000000000002      48.959999999999994
    90   1      4.0799999999999983      61.200000000000003      53.040000000000006
    91   1      4.0799999999999983      63.240000000000002      55.079999999999998
    92   1      6.1200000000000045      61.200000000000003      55.079999999999998
    93   1      6.1200000000000045      63.240000000000002      53.040000000000006
    94   1      4.0799999999999983      61.200000000000003      57.120000000000005
    95   1      4.0799999999999983      63.240000000000002      59.159999999999997
    96   1      6.1200000000000045      61.200000000000003      59.159999999999997
    97   1      6.1200000000000045      63.240000000000002      57.120000000000005
    98   1      4.0799999999999983      61.200000000000003      61.200000000000003
    99   1      4.0799999999999983      63.240000000000002      63.240000000000002
   100   1      6.1200000000000045      61.200000000000003      63.240000000000002
   101   1      6.1200000000000045      63.240000000000002      61.200000000000003
   102   1      4.0799999999999983      61.200000000000003      65.280000000000001
   103   1      6.1200000000000045      61.200000000000003      67.319999999999993
   104   1      6.1200000000000045      63.240000000000002      65.280000000000001
   105   1      6.1200000000000045      65.280000000000001      50.999999999999993
   106   1      4.0799999999999983      65.280000000000001      53.040000000000006
   107   1      6.1200000000000045      65.280000000000001      55.079999999999998
   108   1      6.1200000000000045      67.319999999999993      53.040000000000006
   109   1      4.0799999999999983      65.280000000000001      57.120000000000005
   110   1      6.1200000000000045      65.280000000000001      59.159999999999997
   111   1      6.1200000000000045      67.319999999999993      57.120000000000005
   112   1      4.0799999999999983      65.280000000000001      61.200000000000003
   113   1      6.1200000000000045      65.280000000000001      63.240000000000002
   114   1      6.1200000000000045      67.319999999999993      61.200000000000003
   115   1      10.200000000000001      42.840000000000003      48.959999999999994
   116   1      8.1600000000000019      42.840000000000003      55.079999999999998
   117   1      10.200000000000001      40.799999999999997      55.079999999999998
   118   1      10.200000000000001      42.840000000000003      53.040000000000006
   119   1      8.1600000000000019      42.840000000000003      59.159999999999997
   120   1      10.200000000000001      40.799999999999997      59.159999999999997
   121   1      10.200000000000001      42.840000000000003      57.120000000000005
   122   1      10.200000000000001      42.840000000000003      61.200000000000003
   123   1      10.200000000000001      42.840000000000003      65.280000000000001
   124   1      8.1600000000000019      46.920000000000002      46.920000000000002
   125   1      10.200000000000001      44.880000000000003      46.920000000000002
   126   1      10.200000000000001      46.920000000000002      44.880000000000003
   127   1      8.1600000000000019      44.880000000000003      48.959999999999994
   128   1      8.1600000000000019      46.920000000000002      50.999999999999993
   129   1      10.200000000000001      44.880000000000003      50.999999999999993
   130   1      10.200000000000001      46.920000000000002      48.959999999999994
   131   1      8.1600000000000019      44.880000000000003      53.040000000000006
   132   1      8.1600000000000019      46.920000000000002      55.079999999999998
   133   1      10.200000000000001      44.880000000000003      55.079999999999998
   134   1      10.200000000000001      46.920000000000002      53.040000000000006
   135   1      8.1600000000000019      44.880000000000003      57.120000000000005
   136   1      8.1600000000000019      46.920000000000002      59.159999999999997
   137   1      10.200000000000001      44.880000000000003      59.159999999999997
   138   1      10.200000000000001      46.920000000000002      57.120000000000005
   139   1      8.1600000000000019      44.880000000000003      61.200000000000003
   140   1      8.1600000000000019      46.920000000000002      63.240000000000002
   141   1      10.200000000000001      44.880000000000003      63.240000000000002
   142   1      10.200000000000001      46.920000000000002      61.200000000000003
   143   1      8.1600000000000019      44.880000000000003      65.280000000000001
   144   1      8.1600000000000019      46.920000000000002      67.319999999999993
   145   1      10.200000000000001      44.880000000000003      67.319999999999993
   146   1      10.200000000000001      46.920000000000002      65.280000000000001
   147   1      10.200000000000001      46.920000000000002      69.359999999999985
   148   1      10.200000000000001      48.959999999999994      42.840000000000003
   149   1      8.1600000000000019      48.959999999999994      44.880000000000003
   150   1      8.1600000000000019      50.999999999999993      46.920000000000002
   151   1      10.200000000000001      48.959999999999994      46.920000000000002
   152   1      10.200000000000001      50.999999999999993      44.880000000000003
   153   1      8.1600000000000019      48.959999999999994      48.959999999999994
   154   1      8.1600000000000019      50.999999999999993      50.999999999999993
   155   1      10.200000000000001      48.959999999999994      50.999999999999993
   156   1      10.200000000000001      50.999999999999993      48.959999999999994
   157   1      8.1600000000000019      48.959999999999994      53.040000000000006
   158   1      8.1600000000000019      50.999999999999993      55.079999999999998
   159   1      10.200000000000001      48.959999999999994      55.079999999999998
   160   1      10.200000000000001      50.999999999999993      53.040000000000006
   161   1      8.1600000000000019      48.959999999999994      57.120000000000005
   162   1      8.1600000000000019      50.999999999999993      59.159999999999997
   163   1      10.200000000000001      48.959999999999994      59.159999999999997
   164   1      10.200000000000001      50.999999999999993      57.120000000000005
   165   1      8.1600000000000019      48.959999999999994      61.200000000000003
   166   1      8.1600000000000019      50.999999999999993      63.240000000000002
   167   1      10.200000000000001      48.959999999999994      63.240000000000002
   168   1      10.200000000000001      50.999999999999993      61.200000000000003
   169   1      8.1600000000000019      48.959999999999994      65.280000000000001
   170   1      8.1600000000000019      50.999999999999993      67.319999999999993
   171   1      10.200000000000001      48.959999999999994      67.319999999999993
   172   1      10.200000000000001      50.999999999999993      65.280000000000001
   173   1      8.1600000000000019      48.959999999999994      69.359999999999985
   174   1      10.200000000000001      48.959999999999994      71.400000000000006
   175   1      10.200000000000001      50.999999999999993      69.359999999999985
   176   1      8.1600000000000019      55.079999999999998      42.840000000000003
   177   1      10.200000000000001      53.040000000000006      42.840000000000003
   178   1      10.200000000000001      55.079999999999998      40.799999999999997
   179   1      8.1600000000000019      53.040000000000006      44.880000000000003
   180   1      8.1600000000000019      55.079999999999998      46.920000000000002
   181   1      10.200000000000001      53.040000000000006      46.920000000000002
   182   1      10.200000000000001      55.079999999999998      44.880000000000003
   183   1      8.1600000000000019      53.040000000000006      48.959999999999994
   184   1      8.1600000000000019      55.079999999999998      50.999999999999993
   185   1      10.200000000000001      53.040000000000006      50.999999999999993
   186   1      10.200000000000001      55.079999999999998      48.959999999999994
   187   1      8.1600000000000019      53.040000000000006      53.040000000000006
   188   1      8.1600000000000019      55.079999999999998      55.079999999999998
   189   1      10.200000000000001      53.040000000000006      55.079999999999998
   190   1      10.200000000000001      55.079999999999998      53.040000000000006
   191   1      8.1600000000000019      53.040000000000006      57.120000000000005
   192   1      8.1600000000000019      55.079999999999998      59.159999999999997
   193   1      10.200000000000001      53.040000000000006      59.159999999999997
   194   1      10.200000000000001      55.079999999999998      57.120000000000005
   195   1      8.1600000000000019      53.040000000000006      61.200000000000003
   196   1      8.1600000000000019      55.079999999999998      63.240000000000002
   197   1      10.200000000000001      53.040000000000006      63.240000000000002
   198   1      10.200000000000001      55.079999999999998      61.200000000000003
   199   1      8.1600000000000019      53.040000000000006      65.280000000000001
   200   1      8.1600000000000019      55.079999999999998      67.319999999999993
   201   1      10.200000000000001      53.040000000000006      67.319999999999993
   202   1      10.200000000000001      55.079999999999998      65.280000000000001
   203   1      8.1600000000000019      53.040000000000006      69.359999999999985
   204   1      8.1600000000000019      55.079999999999998      71.400000000000006
   205   1      10.200000000000001      53.040000000000006      71.400000000000006
   206   1      10.200000000000001      55.079999999999998      69.359999999999985
   207   1      10.200000000000001      55.079999999999998      73.439999999999998
   208   1      8.1600000000000019      59.159999999999997      42.840000000000003
   209   1      10.200000000000001      57.120000000000005      42.840000000000003
   210   1      10.200000000000001      59.159999999999997      40.799999999999997
   211   1      8.1600000000000019      57.120000000000005      44.880000000000003
   212   1      8.1600000000000019      59.159999999999997      46.920000000000002
   213   1      10.200000000000001      57.120000000000005      46.920000000000002
   214   1      10.200000000000001      59.159999999999997      44.880000000000003
   215   1      8.1600000000000019      57.120000000000005      48.959999999999994
   216   1      8.1600000000000019      59.159999999999997      50.999999999999993
   217   1      10.200000000000001      57.120000000000005      50.999999999999993
   218   1      10.200000000000001      59.159999999999997      48.959999999999994
   219   1      8.1600000000000019      57.120000000000005      53.040000000000006
   220   1      8.1600000000000019      59.159999999999997      55.079999999999998
   221   1      10.200000000000001      57.120000000000005      55.079999999999998
   222   1      10.200000000000001      59.159999999999997      53.040000000000006
   223   1      8.1600000000000019      57.120000000000005      57.120000000000005
   224   1      8.1600000000000019      59.159999999999997      59.159999999999997
   225   1      10.200000000000001      57.120000000000005      59.159999999999997
   226   1      10.200000000000001      59.159999999999997      57.120000000000005
   227   1      8.1600000000000019      57.120000000000005      61.200000000000003
   228   1      8.1600000000000019      59.159999999999997      63.240000000000002
   229   1      10.200000000000001      57.120000000000005      63.240000000000002
   230   1      10.200000000000001      59.159999999999997      61.200000000000003
   231   1      8.1600000000000019      57.120000000000005      65.280000000000001
   232   1      8.1600000000000019      59.159999999999997      67.319999999999993
   233   1      10.200000000000001      57.120000000000005      67.319999999999993
   234   1      10.200000000000001      59.159999999999997      65.280000000000001
   235   1      8.1600000000000019      57.120000000000005      69.359999999999985
   236   1      8.1600000000000019      59.159999999999997      71.400000000000006
   237   1      10.200000000000001      57.120000000000005      71.400000000000006
   238   1      10.200000000000001      59.159999999999997      69.359999999999985
   239   1      10.200000000000001      59.159999999999997      73.439999999999998
   240   1      10.200000000000001      61.200000000000003      42.840000000000003
   241   1      8.1600000000000019      61.200000000000003      44.880000000000003
   242   1      8.1600000000000019      63.240000000000002      46.920000000000002
   243   1      10.200000000000001      61.200000000000003      46.920000000000002
   244   1      10.200000000000001      63.240000000000002      44.880000000000003
   245   1      8.1600000000000019      61.200000000000003      48.959999999999994
   246   1      8.1600000000000019      63.240000000000002      50.999999999999993
   247   1      10.200000000000001      61.200000000000003      50.999999999999993
   248   1      10.200000000000001      63.240000000000002      48.959999999999994
   249   1      8.1600000000000019      61.200000000000003      53.040000000000006
   250   1      8.1600000000000019      63.240000000000002      55.079999999999998
   251   1      10.200000000000001      61.200000000000003      55.079999999999998
   252   1      10.200000000000001      63.240000000000002      53.040000000000006
   253   1      8.1600000000000019      61.200000000000003      57.120000000000005
   254   1      8.1600000000000019      63.240000000000002      59.159999999999997
   255   1      10.200000000000001      61.200000000000003      59.159999999999997
   256   1      10.200000000000001      63.240000000000002      57.120000000000005
   257   1      8.1600000000000019      61.200000000000003      61.200000000000003
   258   1      8.1600000000000019      63.240000000000002      63.240000000000002
   259   1      10.200000000000001      61.200000000000003      63.240000000000002
   260   1      10.200000000000001      63.240000000000002      61.200000000000003
   261   1      8.1600000000000019      61.200000000000003      65.280000000000001
   262   1      8.1600000000000019      63.240000000000002      67.319999999999993
   263   1      10.200000000000001      61.200000000000003      67.319999999999993
   264   1      10.200000000000001      63.240000000000002      65.280000000000001
   265   1      8.1600000000000019      61.200000000000003      69.359999999999985
   266   1      10.200000000000001      61.200000000000003      71.400000000000006
   267   1      10.200000000000001      63.240000000000002      69.359999999999985
   268   1      10.200000000000001      65.280000000000001      42.840000000000003
   269   1      8.1600000000000019      65.280000000000001      44.880000000000003
   270   1      8.1600000000000019      67.319999999999993      46.920000000000002
   271   1      10.200000000000001      65.280000000000001      46.920000000000002
   272   1      10.200000000000001      67.319999999999993      44.880000000000003
   273   1      8.1600000000000019      65.280000000000001      48.959999999999994
   274   1      8.1600000000000019      67.319999999999993      50.999999999999993
   275   1      10.200000000000001      65.280000000000001      50.999999999999993
   276   1      10.200000000000001      67.319999999999993      48.959999999999994
   277   1      8.1600000000000019      65.280000000000001      53.040000000000006
   278   1      8.1600000000000019      67.319999999999993      55.079999999999998
   279   1      10.200000000000001      65.280000000000001      55.079999999999998
   280   1      10.200000000000001      67.319999999999993      53.040000000000006
   281   1      8.1600000000000019      65.280000000000001      57.120000000000005
   282   1      8.1600000000000019      67.319999999999993      59.159999999999997
   283   1      10.200000000000001      65.280000000000001      59.159999999999997
   284   1      10.200000000000001      67.319999999999993      57.120000000000005
   285   1      8.1600000000000019      65.280000000000001      61.200000000000003
   286   1      8.1600000000000019      67.319999999999993      63.240000000000002
   287   1      10.200000000000001      65.280000000000001      63.240000000000002
   288   1      10.200000000000001      67.319999999999993      61.200000000000003
   289   1      8.1600000000000019      65.280000000000001      65.280000000000001
   290   1      8.1600000000000019      67.319999999999993      67.319999999999993
   291   1      10.200000000000001      65.280000000000001      67.319999999999993
   292   1      10.200000000000001      67.319999999999993      65.280000000000001
   293   1      8.1600000000000019      65.280000000000001      69.359999999999985
   294   1      10.200000000000001      65.280000000000001      71.400000000000006
   295   1      10.200000000000001      67.319999999999993      69.359999999999985
   296   1      10.200000000000001      69.359999999999985      46.920000000000002
   297   1      8.1600000000000019      69.359999999999985      48.959999999999994
   298   1      10.200000000000001      69.359999999999985      50.999999999999993
   299   1      10.200000000000001      71.400000000000006      48.959999999999994
   300   1      8.1600000000000019      69.359999999999985      53.040000000000006
   301   1      8.1600000000000019      71.400000000000006      55.079999999999998
   302   1      10.200000000000001      69.359999999999985      55.079999999999998
   303   1      10.200000000000001      71.400000000000006      53.040000000000006
   304   1      8.1600000000000019      69.359999999999985      57.120000000000005
   305   1      8.1600000000000019      71.400000000000006      59.159999999999997
   306   1      10.200000000000001      69.359999999999985      59.159999999999997
   307   1      10.200000000000001      71.400000000000006      57.120000000000005
   308   1      8.1600000000000019      69.359999999999985      61.200000000000003
   309   1      10.200000000000001      69.359999999999985      63.240000000000002
   310   1      10.200000000000001      71.400000000000006      61.200000000000003
   311   1      8.1600000000000019      69.359999999999985      65.280000000000001
   312   1      10.200000000000001      69.359999999999985      67.319999999999993
   313   1      10.200000000000001      71.400000000000006      65.280000000000001
   314   1      10.200000000000001      73.439999999999998      55.079999999999998
   315   1      10.200000000000001      73.439999999999998      59.159999999999997
   316   1      14.280000000000001      34.679999999999993      57.120000000000005
   317   1      14.280000000000001      38.759999999999998      44.880000000000003
   318   1                   12.24      38.759999999999998      50.999999999999993
   319   1      14.280000000000001      36.719999999999999      50.999999999999993
   320   1      14.280000000000001      38.759999999999998      48.959999999999994
   321   1                   12.24      38.759999999999998      55.079999999999998
   322   1      14.280000000000001      36.719999999999999      55.079999999999998
   323   1      14.280000000000001      38.759999999999998      53.040000000000006
   324   1                   12.24      36.719999999999999      57.120000000000005
   325   1                   12.24      38.759999999999998      59.159999999999997
   326   1      14.280000000000001      36.719999999999999      59.159999999999997
   327   1      14.280000000000001      38.759999999999998      57.120000000000005
   328   1                   12.24      38.759999999999998      63.240000000000002
   329   1      14.280000000000001      36.719999999999999      63.240000000000002
   330   1      14.280000000000001      38.759999999999998      61.200000000000003
   331   1      14.280000000000001      38.759999999999998      65.280000000000001
   332   1      14.280000000000001      38.759999999999998      69.359999999999985
   333   1                   12.24      42.840000000000003      42.840000000000003
   334   1      14.280000000000001      40.799999999999997      42.840000000000003
   335   1      14.280000000000001      42.840000000000003      40.799999999999997
   336   1                   12.24      40.799999999999997      44.880000000000003
   337   1                   12.24      42.840000000000003      46.920000000000002
   338   1      14.280000000000001      40.799999999999997      46.920000000000002
   339   1      14.280000000000001      42.840000000000003      44.880000000000003
   340   1                   12.24      40.799999999999997      48.959999999999994
   341   1                   12.24      42.840000000000003      50.999999999999993
   342   1      14.280000000000001      40.799999999999997      50.999999999999993
   343   1      14.280000000000001      42.840000000000003      48.959999999999994
   344   1                   12.24      40.799999999999997      53.040000000000006
   345   1                   12.24      42.840000000000003      55.079999999999998
   346   1      14.280000000000001      40.799999999999997      55.079999999999998
   347   1      14.280000000000001      42.840000000000003      53.040000000000006
   348   1                   12.24      40.799999999999997      57.120000000000005
   349   1                   12.24      42.840000000000003      59.159999999999997
   350   1      14.280000000000001      40.799999999999997      59.159999999999997
   351   1      14.280000000000001      42.840000000000003      57.120000000000005
   352   1                   12.24      40.799999999999997      61.200000000000003
   353   1                   12.24      42.840000000000003      63.240000000000002
   354   1      14.280000000000001      40.799999999999997      63.240000000000002
   355   1      14.280000000000001      42.840000000000003      61.200000000000003
   356   1                   12.24      40.799999999999997      65.280000000000001
   357   1                   12.24      42.840000000000003      67.319999999999993
   358   1      14.280000000000001      40.799999999999997      67.319999999999993