model_files/CuAu/CuAu_30000/CuAu_531/CuAu_531_fcc_29859_temp.data (written by ASE) 

29859 	 atoms 
2  atom types
0.0                     100  xlo xhi
0.0                     100  ylo yhi
0.0                     100  zlo zhi


Atoms 

     1   1  7.1054273576010019e-15      48.620000000000012      50.490000000000009
     2   1  7.1054273576010019e-15      50.490000000000009      48.620000000000012
     3   1  7.1054273576010019e-15      50.490000000000009      52.360000000000007
     4   1  7.1054273576010019e-15      52.360000000000007      50.490000000000009
     5   1      3.7400000000000091      43.010000000000012      48.620000000000012
     6   1      3.7400000000000091       44.88000000000001      46.750000000000014
     7   1      3.7400000000000091      43.010000000000012      52.360000000000007
     8   1      3.7400000000000091       44.88000000000001      50.490000000000009
     9   1      3.7400000000000091       44.88000000000001      54.230000000000011
    10   1      3.7400000000000091      46.750000000000014       44.88000000000001
    11   1      3.7400000000000091      48.620000000000012      43.010000000000012
    12   1      1.8700000000000117      46.750000000000014      46.750000000000014
    13   1      1.8700000000000117      48.620000000000012      48.620000000000012
    14   1      3.7400000000000091      46.750000000000014      48.620000000000012
    15   1      3.7400000000000091      48.620000000000012      46.750000000000014
    16   1      1.8700000000000117      46.750000000000014      50.490000000000009
    17   1      1.8700000000000117      48.620000000000012      52.360000000000007
    18   1      3.7400000000000091      46.750000000000014      52.360000000000007
    19   1      3.7400000000000091      48.620000000000012      50.490000000000009
    20   1      1.8700000000000117      46.750000000000014      54.230000000000011
    21   1      3.7400000000000091      46.750000000000014      56.100000000000009
    22   1      3.7400000000000091      48.620000000000012      54.230000000000011
    23   1      3.7400000000000091      48.620000000000012      57.970000000000013
    24   1      3.7400000000000091      50.490000000000009       44.88000000000001
    25   1      3.7400000000000091      52.360000000000007      43.010000000000012
    26   1      1.8700000000000117      50.490000000000009      46.750000000000014
    27   1      1.8700000000000117      52.360000000000007      48.620000000000012
    28   1      3.7400000000000091      50.490000000000009      48.620000000000012
    29   1      3.7400000000000091      52.360000000000007      46.750000000000014
    30   1      1.8700000000000117      50.490000000000009      50.490000000000009
    31   1      1.8700000000000117      52.360000000000007      52.360000000000007
    32   1      3.7400000000000091      50.490000000000009      52.360000000000007
    33   1      3.7400000000000091      52.360000000000007      50.490000000000009
    34   1      1.8700000000000117      50.490000000000009      54.230000000000011
    35   1      3.7400000000000091      50.490000000000009      56.100000000000009
    36   1      3.7400000000000091      52.360000000000007      54.230000000000011
    37   1      3.7400000000000091      52.360000000000007      57.970000000000013
    38   1      3.7400000000000091      54.230000000000011       44.88000000000001
    39   1      1.8700000000000117      54.230000000000011      46.750000000000014
    40   1      3.7400000000000091      54.230000000000011      48.620000000000012
    41   1      3.7400000000000091      56.100000000000009      46.750000000000014
    42   1      1.8700000000000117      54.230000000000011      50.490000000000009
    43   1      3.7400000000000091      54.230000000000011      52.360000000000007
    44   1      3.7400000000000091      56.100000000000009      50.490000000000009
    45   1      1.8700000000000117      54.230000000000011      54.230000000000011
    46   1      3.7400000000000091      54.230000000000011      56.100000000000009
    47   1      3.7400000000000091      56.100000000000009      54.230000000000011
    48   1      3.7400000000000091      57.970000000000013      48.620000000000012
    49   1      3.7400000000000091      57.970000000000013      52.360000000000007
    50   1       7.480000000000012      37.400000000000013      46.750000000000014
    51   1       7.480000000000012      37.400000000000013      50.490000000000009
    52   1       7.480000000000012      37.400000000000013      54.230000000000011
    53   1       7.480000000000012       39.27000000000001      41.140000000000008
    54   1       7.480000000000012      41.140000000000008       39.27000000000001
    55   1      5.6100000000000136      41.140000000000008       44.88000000000001
    56   1       7.480000000000012       39.27000000000001       44.88000000000001
    57   1       7.480000000000012      41.140000000000008      43.010000000000012
    58   1      5.6100000000000136      41.140000000000008      48.620000000000012
    59   1       7.480000000000012       39.27000000000001      48.620000000000012
    60   1       7.480000000000012      41.140000000000008      46.750000000000014
    61   1      5.6100000000000136       39.27000000000001      50.490000000000009
    62   1      5.6100000000000136      41.140000000000008      52.360000000000007
    63   1       7.480000000000012       39.27000000000001      52.360000000000007
    64   1       7.480000000000012      41.140000000000008      50.490000000000009
    65   1      5.6100000000000136      41.140000000000008      56.100000000000009
    66   1       7.480000000000012       39.27000000000001      56.100000000000009
    67   1       7.480000000000012      41.140000000000008      54.230000000000011
    68   1       7.480000000000012       39.27000000000001      59.840000000000018
    69   1       7.480000000000012      41.140000000000008      57.970000000000013
    70   1       7.480000000000012      41.140000000000008      61.710000000000022
    71   1      5.6100000000000136       44.88000000000001      41.140000000000008
    72   1       7.480000000000012      43.010000000000012      41.140000000000008
    73   1       7.480000000000012       44.88000000000001       39.27000000000001
    74   1      5.6100000000000136      43.010000000000012      43.010000000000012
    75   1      5.6100000000000136       44.88000000000001       44.88000000000001
    76   1       7.480000000000012      43.010000000000012       44.88000000000001
    77   1       7.480000000000012       44.88000000000001      43.010000000000012
    78   1      5.6100000000000136      43.010000000000012      46.750000000000014
    79   1      5.6100000000000136       44.88000000000001      48.620000000000012
    80   1       7.480000000000012      43.010000000000012      48.620000000000012
    81   1       7.480000000000012       44.88000000000001      46.750000000000014
    82   1      5.6100000000000136      43.010000000000012      50.490000000000009
    83   1      5.6100000000000136       44.88000000000001      52.360000000000007
    84   1       7.480000000000012      43.010000000000012      52.360000000000007
    85   1       7.480000000000012       44.88000000000001      50.490000000000009
    86   1      5.6100000000000136      43.010000000000012      54.230000000000011
    87   1      5.6100000000000136       44.88000000000001      56.100000000000009
    88   1       7.480000000000012      43.010000000000012      56.100000000000009
    89   1       7.480000000000012       44.88000000000001      54.230000000000011
    90   1      5.6100000000000136      43.010000000000012      57.970000000000013
    91   1      5.6100000000000136       44.88000000000001      59.840000000000018
    92   1       7.480000000000012      43.010000000000012      59.840000000000018
    93   1       7.480000000000012       44.88000000000001      57.970000000000013
    94   1       7.480000000000012       44.88000000000001      61.710000000000022
    95   1       7.480000000000012      46.750000000000014      37.400000000000013
    96   1      5.6100000000000136      48.620000000000012      41.140000000000008
    97   1       7.480000000000012      46.750000000000014      41.140000000000008
    98   1       7.480000000000012      48.620000000000012       39.27000000000001
    99   1      5.6100000000000136      46.750000000000014      43.010000000000012
   100   1      5.6100000000000136      48.620000000000012       44.88000000000001
   101   1       7.480000000000012      46.750000000000014       44.88000000000001
   102   1       7.480000000000012      48.620000000000012      43.010000000000012
   103   1      5.6100000000000136      46.750000000000014      46.750000000000014
   104   1      5.6100000000000136      48.620000000000012      48.620000000000012
   105   1       7.480000000000012      46.750000000000014      48.620000000000012
   106   1       7.480000000000012      48.620000000000012      46.750000000000014
   107   1      5.6100000000000136      46.750000000000014      50.490000000000009
   108   1      5.6100000000000136      48.620000000000012      52.360000000000007
   109   1       7.480000000000012      46.750000000000014      52.360000000000007
   110   1       7.480000000000012      48.620000000000012      50.490000000000009
   111   1      5.6100000000000136      46.750000000000014      54.230000000000011
   112   1      5.6100000000000136      48.620000000000012      56.100000000000009
   113   1       7.480000000000012      46.750000000000014      56.100000000000009
   114   1       7.480000000000012      48.620000000000012      54.230000000000011
   115   1      5.6100000000000136      46.750000000000014      57.970000000000013
   116   1      5.6100000000000136      48.620000000000012      59.840000000000018
   117   1       7.480000000000012      46.750000000000014      59.840000000000018
   118   1       7.480000000000012      48.620000000000012      57.970000000000013
   119   1       7.480000000000012      46.750000000000014      63.580000000000013
   120   1       7.480000000000012      48.620000000000012      61.710000000000022
   121   1       7.480000000000012      50.490000000000009      37.400000000000013
   122   1      5.6100000000000136      50.490000000000009       39.27000000000001
   123   1      5.6100000000000136      52.360000000000007      41.140000000000008
   124   1       7.480000000000012      50.490000000000009      41.140000000000008
   125   1       7.480000000000012      52.360000000000007       39.27000000000001
   126   1      5.6100000000000136      50.490000000000009      43.010000000000012
   127   1      5.6100000000000136      52.360000000000007       44.88000000000001
   128   1       7.480000000000012      50.490000000000009       44.88000000000001
   129   1       7.480000000000012      52.360000000000007      43.010000000000012
   130   1      5.6100000000000136      50.490000000000009      46.750000000000014
   131   1      5.6100000000000136      52.360000000000007      48.620000000000012
   132   1       7.480000000000012      50.490000000000009      48.620000000000012
   133   1       7.480000000000012      52.360000000000007      46.750000000000014
   134   1      5.6100000000000136      50.490000000000009      50.490000000000009
   135   1      5.6100000000000136      52.360000000000007      52.360000000000007
   136   1       7.480000000000012      50.490000000000009      52.360000000000007
   137   1       7.480000000000012      52.360000000000007      50.490000000000009
   138   1      5.6100000000000136      50.490000000000009      54.230000000000011
   139   1      5.6100000000000136      52.360000000000007      56.100000000000009
   140   1       7.480000000000012      50.490000000000009      56.100000000000009
   141   1       7.480000000000012      52.360000000000007      54.230000000000011
   142   1      5.6100000000000136      50.490000000000009      57.970000000000013
   143   1      5.6100000000000136      52.360000000000007      59.840000000000018
   144   1       7.480000000000012      50.490000000000009      59.840000000000018
   145   1       7.480000000000012      52.360000000000007      57.970000000000013
   146   1      5.6100000000000136      50.490000000000009      61.710000000000022
   147   1       7.480000000000012      50.490000000000009      63.580000000000013
   148   1       7.480000000000012      52.360000000000007      61.710000000000022
   149   1       7.480000000000012      54.230000000000011      37.400000000000013
   150   1      5.6100000000000136      56.100000000000009      41.140000000000008
   151   1       7.480000000000012      54.230000000000011      41.140000000000008
   152   1       7.480000000000012      56.100000000000009       39.27000000000001
   153   1      5.6100000000000136      54.230000000000011      43.010000000000012
   154   1      5.6100000000000136      56.100000000000009       44.88000000000001
   155   1       7.480000000000012      54.230000000000011       44.88000000000001
   156   1       7.480000000000012      56.100000000000009      43.010000000000012
   157   1      5.6100000000000136      54.230000000000011      46.750000000000014
   158   1      5.6100000000000136      56.100000000000009      48.620000000000012
   159   1       7.480000000000012      54.230000000000011      48.620000000000012
   160   1       7.480000000000012      56.100000000000009      46.750000000000014
   161   1      5.6100000000000136      54.230000000000011      50.490000000000009
   162   1      5.6100000000000136      56.100000000000009      52.360000000000007
   163   1       7.480000000000012      54.230000000000011      52.360000000000007
   164   1       7.480000000000012      56.100000000000009      50.490000000000009
   165   1      5.6100000000000136      54.230000000000011      54.230000000000011
   166   1      5.6100000000000136      56.100000000000009      56.100000000000009
   167   1       7.480000000000012      54.230000000000011      56.100000000000009
   168   1       7.480000000000012      56.100000000000009      54.230000000000011
   169   1      5.6100000000000136      54.230000000000011      57.970000000000013
   170   1      5.6100000000000136      56.100000000000009      59.840000000000018
   171   1       7.480000000000012      54.230000000000011      59.840000000000018
   172   1       7.480000000000012      56.100000000000009      57.970000000000013
   173   1       7.480000000000012      54.230000000000011      63.580000000000013
   174   1       7.480000000000012      56.100000000000009      61.710000000000022
   175   1       7.480000000000012      57.970000000000013      41.140000000000008
   176   1       7.480000000000012      59.840000000000018       39.27000000000001
   177   1      5.6100000000000136      57.970000000000013      43.010000000000012
   178   1      5.6100000000000136      59.840000000000018       44.88000000000001
   179   1       7.480000000000012      57.970000000000013       44.88000000000001
   180   1       7.480000000000012      59.840000000000018      43.010000000000012
   181   1      5.6100000000000136      57.970000000000013      46.750000000000014
   182   1      5.6100000000000136      59.840000000000018      48.620000000000012
   183   1       7.480000000000012      57.970000000000013      48.620000000000012
   184   1       7.480000000000012      59.840000000000018      46.750000000000014
   185   1      5.6100000000000136      57.970000000000013      50.490000000000009
   186   1      5.6100000000000136      59.840000000000018      52.360000000000007
   187   1       7.480000000000012      57.970000000000013      52.360000000000007
   188   1       7.480000000000012      59.840000000000018      50.490000000000009
   189   1      5.6100000000000136      57.970000000000013      54.230000000000011
   190   1      5.6100000000000136      59.840000000000018      56.100000000000009
   191   1       7.480000000000012      57.970000000000013      56.100000000000009
   192   1       7.480000000000012      59.840000000000018      54.230000000000011
   193   1      5.6100000000000136      57.970000000000013      57.970000000000013
   194   1       7.480000000000012      57.970000000000013      59.840000000000018
   195   1       7.480000000000012      59.840000000000018      57.970000000000013
   196   1       7.480000000000012      59.840000000000018      61.710000000000022
   197   1       7.480000000000012      61.710000000000022      41.140000000000008
   198   1       7.480000000000012      61.710000000000022       44.88000000000001
   199   1       7.480000000000012      61.710000000000022      48.620000000000012
   200   1       7.480000000000012      63.580000000000013      46.750000000000014
   201   1      5.6100000000000136      61.710000000000022      50.490000000000009
   202   1       7.480000000000012      61.710000000000022      52.360000000000007
   203   1       7.480000000000012      63.580000000000013      50.490000000000009
   204   1       7.480000000000012      61.710000000000022      56.100000000000009
   205   1       7.480000000000012      63.580000000000013      54.230000000000011
   206   1       7.480000000000012      61.710000000000022      59.840000000000018
   207   1      11.220000000000013      29.920000000000012      50.490000000000009
   208   1      11.220000000000013      33.660000000000011       39.27000000000001
   209   1      11.220000000000013      31.790000000000013       44.88000000000001
   210   1      11.220000000000013      33.660000000000011      43.010000000000012
   211   1      9.3500000000000085      33.660000000000011      48.620000000000012
   212   1      11.220000000000013      31.790000000000013      48.620000000000012
   213   1      11.220000000000013      33.660000000000011      46.750000000000014
   214   1      9.3500000000000085      33.660000000000011      52.360000000000007
   215   1      11.220000000000013      31.790000000000013      52.360000000000007
   216   1      11.220000000000013      33.660000000000011      50.490000000000009
   217   1      11.220000000000013      31.790000000000013      56.100000000000009
   218   1      11.220000000000013      33.660000000000011      54.230000000000011
   219   1      11.220000000000013      33.660000000000011      57.970000000000013
   220   1      11.220000000000013      33.660000000000011      61.710000000000022
   221   1      9.3500000000000085      37.400000000000013      37.400000000000013
   222   1      11.220000000000013      35.530000000000015      37.400000000000013
   223   1      11.220000000000013      37.400000000000013      35.530000000000015
   224   1      9.3500000000000085      37.400000000000013      41.140000000000008
   225   1      11.220000000000013      35.530000000000015      41.140000000000008
   226   1      11.220000000000013      37.400000000000013       39.27000000000001
   227   1      9.3500000000000085      35.530000000000015      43.010000000000012
   228   1      9.3500000000000085      37.400000000000013       44.88000000000001
   229   1      11.220000000000013      35.530000000000015       44.88000000000001
   230   1      11.220000000000013      37.400000000000013      43.010000000000012
   231   1      9.3500000000000085      35.530000000000015      46.750000000000014
   232   1      9.3500000000000085      37.400000000000013      48.620000000000012
   233   1      11.220000000000013      35.530000000000015      48.620000000000012
   234   1      11.220000000000013      37.400000000000013      46.750000000000014
   235   1      9.3500000000000085      35.530000000000015      50.490000000000009
   236   1      9.3500000000000085      37.400000000000013      52.360000000000007
   237   1      11.220000000000013      35.530000000000015      52.360000000000007
   238   1      11.220000000000013      37.400000000000013      50.490000000000009
   239   1      9.3500000000000085      35.530000000000015      54.230000000000011
   240   1      9.3500000000000085      37.400000000000013      56.100000000000009
   241   1      11.220000000000013      35.530000000000015      56.100000000000009
   242   1      11.220000000000013      37.400000000000013      54.230000000000011
   243   1      9.3500000000000085      35.530000000000015      57.970000000000013
   244   1      9.3500000000000085      37.400000000000013      59.840000000000018
   245   1      11.220000000000013      35.530000000000015      59.840000000000018
   246   1      11.220000000000013      37.400000000000013      57.970000000000013
   247   1      9.3500000000000085      37.400000000000013      63.580000000000013
   248   1      11.220000000000013      35.530000000000015      63.580000000000013
   249   1      11.220000000000013      37.400000000000013      61.710000000000022
   250   1      11.220000000000013      37.400000000000013      65.450000000000017
   251   1      11.220000000000013       39.27000000000001      33.660000000000011
   252   1      9.3500000000000085      41.140000000000008      37.400000000000013
   253   1      11.220000000000013       39.27000000000001      37.400000000000013
   254   1      11.220000000000013      41.140000000000008      35.530000000000015
   255   1      9.3500000000000085       39.27000000000001       39.27000000000001
   256   1      9.3500000000000085      41.140000000000008      41.140000000000008
   257   1      11.220000000000013       39.27000000000001      41.140000000000008
   258   1      11.220000000000013      41.140000000000008       39.27000000000001
   259   1      9.3500000000000085       39.27000000000001      43.010000000000012
   260   1      9.3500000000000085      41.140000000000008       44.88000000000001
   261   1      11.220000000000013       39.27000000000001       44.88000000000001
   262   1      11.220000000000013      41.140000000000008      43.010000000000012
   263   1      9.3500000000000085       39.27000000000001      46.750000000000014
   264   1      9.3500000000000085      41.140000000000008      48.620000000000012
   265   1      11.220000000000013       39.27000000000001      48.620000000000012
   266   1      11.220000000000013      41.140000000000008      46.750000000000014
   267   1      9.3500000000000085       39.27000000000001      50.490000000000009
   268   1      9.3500000000000085      41.140000000000008      52.360000000000007
   269   1      11.220000000000013       39.27000000000001      52.360000000000007
   270   1      11.220000000000013      41.140000000000008      50.490000000000009
   271   1      9.3500000000000085       39.27000000000001      54.230000000000011
   272   1      9.3500000000000085      41.140000000000008      56.100000000000009
   273   1      11.220000000000013       39.27000000000001      56.100000000000009
   274   1      11.220000000000013      41.140000000000008      54.230000000000011
   275   1      9.3500000000000085       39.27000000000001      57.970000000000013
   276   1      9.3500000000000085      41.140000000000008      59.840000000000018
   277   1      11.220000000000013       39.27000000000001      59.840000000000018
   278   1      11.220000000000013      41.140000000000008      57.970000000000013
   279   1      9.3500000000000085       39.27000000000001      61.710000000000022
   280   1      9.3500000000000085      41.140000000000008      63.580000000000013
   281   1      11.220000000000013       39.27000000000001      63.580000000000013
   282   1      11.220000000000013      41.140000000000008      61.710000000000022
   283   1      11.220000000000013       39.27000000000001      67.320000000000022
   284   1      11.220000000000013      41.140000000000008      65.450000000000017
   285   1      11.220000000000013      43.010000000000012      33.660000000000011
   286   1      11.220000000000013       44.88000000000001      31.790000000000013
   287   1      9.3500000000000085      43.010000000000012      35.530000000000015
   288   1      9.3500000000000085       44.88000000000001      37.400000000000013
   289   1      11.220000000000013      43.010000000000012      37.400000000000013
   290   1      11.220000000000013       44.88000000000001      35.530000000000015
   291   1      9.3500000000000085      43.010000000000012       39.27000000000001
   292   1      9.3500000000000085       44.88000000000001      41.140000000000008
   293   1      11.220000000000013      43.010000000000012      41.140000000000008
   294   1      11.220000000000013       44.88000000000001       39.27000000000001
   295   1      9.3500000000000085      43.010000000000012      43.010000000000012
   296   1      9.3500000000000085       44.88000000000001       44.88000000000001
   297   1      11.220000000000013      43.010000000000012       44.88000000000001
   298   1      11.220000000000013       44.88000000000001      43.010000000000012
   299   1      9.3500000000000085      43.010000000000012      46.750000000000014
   300   1      9.3500000000000085       44.88000000000001      48.620000000000012
   301   1      11.220000000000013      43.010000000000012      48.620000000000012
   302   1      11.220000000000013       44.88000000000001      46.750000000000014
   303   1      9.3500000000000085      43.010000000000012      50.490000000000009
   304   1      9.3500000000000085       44.88000000000001      52.360000000000007
   305   1      11.220000000000013      43.010000000000012      52.360000000000007
   306   1      11.220000000000013       44.88000000000001      50.490000000000009
   307   1      9.3500000000000085      43.010000000000012      54.230000000000011
   308   1      9.3500000000000085       44.88000000000001      56.100000000000009
   309   1      11.220000000000013      43.010000000000012      56.100000000000009
   310   1      11.220000000000013       44.88000000000001      54.230000000000011
   311   1      9.3500000000000085      43.010000000000012      57.970000000000013
   312   1      9.3500000000000085       44.88000000000001      59.840000000000018
   313   1      11.220000000000013      43.010000000000012      59.840000000000018
   314   1      11.220000000000013       44.88000000000001      57.970000000000013
   315   1      9.3500000000000085      43.010000000000012      61.710000000000022
   316   1      9.3500000000000085       44.88000000000001      63.580000000000013
   317   1      11.220000000000013      43.010000000000012      63.580000000000013
   318   1      11.220000000000013       44.88000000000001      61.710000000000022
   319   1      9.3500000000000085      43.010000000000012      65.450000000000017
   320   1      11.220000000000013      43.010000000000012      67.320000000000022
   321   1      11.220000000000013       44.88000000000001      65.450000000000017
   322   1      11.220000000000013       44.88000000000001      69.190000000000012
   323   1      9.3500000000000085      48.620000000000012      33.660000000000011
   324   1      11.220000000000013      46.750000000000014      33.660000000000011
   325   1      11.220000000000013      48.620000000000012      31.790000000000013
   326   1      9.3500000000000085      46.750000000000014      35.530000000000015
   327   1      9.3500000000000085      48.620000000000012      37.400000000000013
   328   1      11.220000000000013      46.750000000000014      37.400000000000013
   329   1      11.220000000000013      48.620000000000012      35.530000000000015
   330   1      9.3500000000000085      46.750000000000014       39.27000000000001
   331   1      9.3500000000000085      48.620000000000012      41.140000000000008
   332   1      11.220000000000013      46.750000000000014      41.140000000000008
   333   1      11.220000000000013      48.620000000000012       39.27000000000001
   334   1      9.3500000000000085      46.750000000000014      43.010000000000012
   335   1      9.3500000000000085      48.620000000000012       44.88000000000001
   336   1      11.220000000000013      46.750000000000014       44.88000000000001
   337   1      11.220000000000013      48.620000000000012      43.010000000000012
   338   1      9.3500000000000085      46.750000000000014      46.750000000000014
   339   1      9.3500000000000085      48.620000000000012      48.620000000000012
   340   1      11.220000000000013      46.750000000000014      48.620000000000012
   341   1      11.220000000000013      48.620000000000012      46.750000000000014
   342   1      9.3500000000000085      46.750000000000014      50.490000000000009
   343   1      9.3500000000000085      48.620000000000012      52.360000000000007
   344   1      11.220000000000013      46.750000000000014      52.360000000000007
   345   1      11.220000000000013      48.620000000000012      50.490000000000009
   346   1      9.3500000000000085      46.750000000000014      54.230000000000011
   347   1      9.3500000000000085      48.620000000000012      56.100000000000009
   348   1      11.220000000000013      46.750000000000014      56.100000000000009
   349   1      11.220000000000013      48.620000000000012      54.230000000000011
   350   1      9.3500000000000085      46.750000000000014      57.970000000000013
   351   1      9.3500000000000085      48.620000000000012      59.840000000000018
   352   1      11.220000000000013      46.750000000000014      59.840000000000018
   353   1      11.220000000000013      48.620000000000012      57.970000000000013
   354   1      9.3500000000000085      46.750000000000014      61.710000000000022
   355   1      9.3500000000000085      48.620000000000012      63.580000000000013
   356   1      11.220000000000013      46.750000000000014      63.580000000000013
   357   1      11.220000000000013      48.620000000000012      61.710000000000022
   358   1      9.3500000000000085      46.750000000000014      65.450000000000017