model_files/Pt/Pt_10000/Pt_542/data.Pt_542_fcc_10065 (written by ASE) 

10065 	 atoms 
1  atom types
0.0                      78  xlo xhi
0.0                      78  ylo yhi
0.0                      78  zlo zhi


Atoms 

     1   1      1.9600000000000009                   33.32      39.199999999999989
     2   1                       0      37.240000000000002      37.240000000000002
     3   1      1.9600000000000009      35.280000000000001      37.240000000000002
     4   1      1.9600000000000009      37.240000000000002      35.280000000000001
     5   1                       0      37.240000000000002      41.159999999999997
     6   1      1.9600000000000009      35.280000000000001      41.159999999999997
     7   1      1.9600000000000009      37.240000000000002      39.199999999999989
     8   1      1.9600000000000009      37.240000000000002      43.119999999999997
     9   1      1.9600000000000009      39.199999999999989                   33.32
    10   1                       0      41.159999999999997      37.240000000000002
    11   1      1.9600000000000009      39.199999999999989      37.240000000000002
    12   1      1.9600000000000009      41.159999999999997      35.280000000000001
    13   1                       0      39.199999999999989      39.199999999999989
    14   1                       0      41.159999999999997      41.159999999999997
    15   1      1.9600000000000009      39.199999999999989      41.159999999999997
    16   1      1.9600000000000009      41.159999999999997      39.199999999999989
    17   1      1.9600000000000009      39.199999999999989      45.079999999999998
    18   1      1.9600000000000009      41.159999999999997      43.119999999999997
    19   1      1.9600000000000009      43.119999999999997      37.240000000000002
    20   1      1.9600000000000009      43.119999999999997      41.159999999999997
    21   1      1.9600000000000009      45.079999999999998      39.199999999999989
    22   1      5.8800000000000017      29.399999999999999      39.199999999999989
    23   1      5.8800000000000017      31.359999999999999                   33.32
    24   1      5.8800000000000017                   33.32      31.359999999999999
    25   1      3.9199999999999946                   33.32      37.240000000000002
    26   1      5.8800000000000017      31.359999999999999      37.240000000000002
    27   1      5.8800000000000017                   33.32      35.280000000000001
    28   1      3.9199999999999946      31.359999999999999      39.199999999999989
    29   1      3.9199999999999946                   33.32      41.159999999999997
    30   1      5.8800000000000017      31.359999999999999      41.159999999999997
    31   1      5.8800000000000017                   33.32      39.199999999999989
    32   1      5.8800000000000017      31.359999999999999      45.079999999999998
    33   1      5.8800000000000017                   33.32      43.119999999999997
    34   1      5.8800000000000017                   33.32      47.039999999999999
    35   1      3.9199999999999946      37.240000000000002                   33.32
    36   1      5.8800000000000017      35.280000000000001                   33.32
    37   1      5.8800000000000017      37.240000000000002      31.359999999999999
    38   1      3.9199999999999946      35.280000000000001      35.280000000000001
    39   1      3.9199999999999946      37.240000000000002      37.240000000000002
    40   1      5.8800000000000017      35.280000000000001      37.240000000000002
    41   1      5.8800000000000017      37.240000000000002      35.280000000000001
    42   1      3.9199999999999946      35.280000000000001      39.199999999999989
    43   1      3.9199999999999946      37.240000000000002      41.159999999999997
    44   1      5.8800000000000017      35.280000000000001      41.159999999999997
    45   1      5.8800000000000017      37.240000000000002      39.199999999999989
    46   1      3.9199999999999946      35.280000000000001      43.119999999999997
    47   1      3.9199999999999946      37.240000000000002      45.079999999999998
    48   1      5.8800000000000017      35.280000000000001      45.079999999999998
    49   1      5.8800000000000017      37.240000000000002      43.119999999999997
    50   1      5.8800000000000017      37.240000000000002      47.039999999999999
    51   1      5.8800000000000017      39.199999999999989      29.399999999999999
    52   1      3.9199999999999946      39.199999999999989      31.359999999999999
    53   1      3.9199999999999946      41.159999999999997                   33.32
    54   1      5.8800000000000017      39.199999999999989                   33.32
    55   1      5.8800000000000017      41.159999999999997      31.359999999999999
    56   1      3.9199999999999946      39.199999999999989      35.280000000000001
    57   1      3.9199999999999946      41.159999999999997      37.240000000000002
    58   1      5.8800000000000017      39.199999999999989      37.240000000000002
    59   1      5.8800000000000017      41.159999999999997      35.280000000000001
    60   1      3.9199999999999946      39.199999999999989      39.199999999999989
    61   1      3.9199999999999946      41.159999999999997      41.159999999999997
    62   1      5.8800000000000017      39.199999999999989      41.159999999999997
    63   1      5.8800000000000017      41.159999999999997      39.199999999999989
    64   1      3.9199999999999946      39.199999999999989      43.119999999999997
    65   1      3.9199999999999946      41.159999999999997      45.079999999999998
    66   1      5.8800000000000017      39.199999999999989      45.079999999999998
    67   1      5.8800000000000017      41.159999999999997      43.119999999999997
    68   1      3.9199999999999946      39.199999999999989      47.039999999999999
    69   1      5.8800000000000017      39.199999999999989                      49
    70   1      5.8800000000000017      41.159999999999997      47.039999999999999
    71   1      5.8800000000000017      43.119999999999997                   33.32
    72   1      5.8800000000000017      45.079999999999998      31.359999999999999
    73   1      3.9199999999999946      43.119999999999997      35.280000000000001
    74   1      3.9199999999999946      45.079999999999998      37.240000000000002
    75   1      5.8800000000000017      43.119999999999997      37.240000000000002
    76   1      5.8800000000000017      45.079999999999998      35.280000000000001
    77   1      3.9199999999999946      43.119999999999997      39.199999999999989
    78   1      3.9199999999999946      45.079999999999998      41.159999999999997
    79   1      5.8800000000000017      43.119999999999997      41.159999999999997
    80   1      5.8800000000000017      45.079999999999998      39.199999999999989
    81   1      3.9199999999999946      43.119999999999997      43.119999999999997
    82   1      5.8800000000000017      43.119999999999997      45.079999999999998
    83   1      5.8800000000000017      45.079999999999998      43.119999999999997
    84   1      5.8800000000000017      45.079999999999998      47.039999999999999
    85   1      5.8800000000000017      47.039999999999999                   33.32
    86   1      5.8800000000000017      47.039999999999999      37.240000000000002
    87   1      3.9199999999999946      47.039999999999999      39.199999999999989
    88   1      5.8800000000000017      47.039999999999999      41.159999999999997
    89   1      5.8800000000000017                      49      39.199999999999989
    90   1      5.8800000000000017      47.039999999999999      45.079999999999998
    91   1      9.7999999999999972      25.479999999999997      35.280000000000001
    92   1      9.7999999999999972      25.479999999999997      39.199999999999989
    93   1      9.7999999999999972      25.479999999999997      43.119999999999997
    94   1      7.8399999999999954      29.399999999999999                   33.32
    95   1      9.7999999999999972      27.439999999999994                   33.32
    96   1      9.7999999999999972      29.399999999999999      31.359999999999999
    97   1      7.8399999999999954      29.399999999999999      37.240000000000002
    98   1      9.7999999999999972      27.439999999999994      37.240000000000002
    99   1      9.7999999999999972      29.399999999999999      35.280000000000001
   100   1      7.8399999999999954      27.439999999999994      39.199999999999989
   101   1      7.8399999999999954      29.399999999999999      41.159999999999997
   102   1      9.7999999999999972      27.439999999999994      41.159999999999997
   103   1      9.7999999999999972      29.399999999999999      39.199999999999989
   104   1      7.8399999999999954      29.399999999999999      45.079999999999998
   105   1      9.7999999999999972      27.439999999999994      45.079999999999998
   106   1      9.7999999999999972      29.399999999999999      43.119999999999997
   107   1      9.7999999999999972      29.399999999999999      47.039999999999999
   108   1      7.8399999999999954                   33.32      29.399999999999999
   109   1      9.7999999999999972      31.359999999999999      29.399999999999999
   110   1      9.7999999999999972                   33.32      27.439999999999994
   111   1      7.8399999999999954      31.359999999999999      31.359999999999999
   112   1      7.8399999999999954                   33.32                   33.32
   113   1      9.7999999999999972      31.359999999999999                   33.32
   114   1      9.7999999999999972                   33.32      31.359999999999999
   115   1      7.8399999999999954      31.359999999999999      35.280000000000001
   116   1      7.8399999999999954                   33.32      37.240000000000002
   117   1      9.7999999999999972      31.359999999999999      37.240000000000002
   118   1      9.7999999999999972                   33.32      35.280000000000001
   119   1      7.8399999999999954      31.359999999999999      39.199999999999989
   120   1      7.8399999999999954                   33.32      41.159999999999997
   121   1      9.7999999999999972      31.359999999999999      41.159999999999997
   122   1      9.7999999999999972                   33.32      39.199999999999989
   123   1      7.8399999999999954      31.359999999999999      43.119999999999997
   124   1      7.8399999999999954                   33.32      45.079999999999998
   125   1      9.7999999999999972      31.359999999999999      45.079999999999998
   126   1      9.7999999999999972                   33.32      43.119999999999997
   127   1      7.8399999999999954      31.359999999999999      47.039999999999999
   128   1      7.8399999999999954                   33.32                      49
   129   1      9.7999999999999972      31.359999999999999                      49
   130   1      9.7999999999999972                   33.32      47.039999999999999
   131   1      9.7999999999999972                   33.32      50.959999999999994
   132   1      9.7999999999999972      35.280000000000001      25.479999999999997
   133   1      7.8399999999999954      37.240000000000002      29.399999999999999
   134   1      9.7999999999999972      35.280000000000001      29.399999999999999
   135   1      9.7999999999999972      37.240000000000002      27.439999999999994
   136   1      7.8399999999999954      35.280000000000001      31.359999999999999
   137   1      7.8399999999999954      37.240000000000002                   33.32
   138   1      9.7999999999999972      35.280000000000001                   33.32
   139   1      9.7999999999999972      37.240000000000002      31.359999999999999
   140   1      7.8399999999999954      35.280000000000001      35.280000000000001
   141   1      7.8399999999999954      37.240000000000002      37.240000000000002
   142   1      9.7999999999999972      35.280000000000001      37.240000000000002
   143   1      9.7999999999999972      37.240000000000002      35.280000000000001
   144   1      7.8399999999999954      35.280000000000001      39.199999999999989
   145   1      7.8399999999999954      37.240000000000002      41.159999999999997
   146   1      9.7999999999999972      35.280000000000001      41.159999999999997
   147   1      9.7999999999999972      37.240000000000002      39.199999999999989
   148   1      7.8399999999999954      35.280000000000001      43.119999999999997
   149   1      7.8399999999999954      37.240000000000002      45.079999999999998
   150   1      9.7999999999999972      35.280000000000001      45.079999999999998
   151   1      9.7999999999999972      37.240000000000002      43.119999999999997
   152   1      7.8399999999999954      35.280000000000001      47.039999999999999
   153   1      7.8399999999999954      37.240000000000002                      49
   154   1      9.7999999999999972      35.280000000000001                      49
   155   1      9.7999999999999972      37.240000000000002      47.039999999999999
   156   1      9.7999999999999972      35.280000000000001      52.919999999999987
   157   1      9.7999999999999972      37.240000000000002      50.959999999999994
   158   1      9.7999999999999972      39.199999999999989      25.479999999999997
   159   1      7.8399999999999954      39.199999999999989      27.439999999999994
   160   1      7.8399999999999954      41.159999999999997      29.399999999999999
   161   1      9.7999999999999972      39.199999999999989      29.399999999999999
   162   1      9.7999999999999972      41.159999999999997      27.439999999999994
   163   1      7.8399999999999954      39.199999999999989      31.359999999999999
   164   1      7.8399999999999954      41.159999999999997                   33.32
   165   1      9.7999999999999972      39.199999999999989                   33.32
   166   1      9.7999999999999972      41.159999999999997      31.359999999999999
   167   1      7.8399999999999954      39.199999999999989      35.280000000000001
   168   1      7.8399999999999954      41.159999999999997      37.240000000000002
   169   1      9.7999999999999972      39.199999999999989      37.240000000000002
   170   1      9.7999999999999972      41.159999999999997      35.280000000000001
   171   1      7.8399999999999954      39.199999999999989      39.199999999999989
   172   1      7.8399999999999954      41.159999999999997      41.159999999999997
   173   1      9.7999999999999972      39.199999999999989      41.159999999999997
   174   1      9.7999999999999972      41.159999999999997      39.199999999999989
   175   1      7.8399999999999954      39.199999999999989      43.119999999999997
   176   1      7.8399999999999954      41.159999999999997      45.079999999999998
   177   1      9.7999999999999972      39.199999999999989      45.079999999999998
   178   1      9.7999999999999972      41.159999999999997      43.119999999999997
   179   1      7.8399999999999954      39.199999999999989      47.039999999999999
   180   1      7.8399999999999954      41.159999999999997                      49
   181   1      9.7999999999999972      39.199999999999989                      49
   182   1      9.7999999999999972      41.159999999999997      47.039999999999999
   183   1      7.8399999999999954      39.199999999999989      50.959999999999994
   184   1      9.7999999999999972      39.199999999999989      52.919999999999987
   185   1      9.7999999999999972      41.159999999999997      50.959999999999994
   186   1      9.7999999999999972      43.119999999999997      25.479999999999997
   187   1      7.8399999999999954      45.079999999999998      29.399999999999999
   188   1      9.7999999999999972      43.119999999999997      29.399999999999999
   189   1      9.7999999999999972      45.079999999999998      27.439999999999994
   190   1      7.8399999999999954      43.119999999999997      31.359999999999999
   191   1      7.8399999999999954      45.079999999999998                   33.32
   192   1      9.7999999999999972      43.119999999999997                   33.32
   193   1      9.7999999999999972      45.079999999999998      31.359999999999999
   194   1      7.8399999999999954      43.119999999999997      35.280000000000001
   195   1      7.8399999999999954      45.079999999999998      37.240000000000002
   196   1      9.7999999999999972      43.119999999999997      37.240000000000002
   197   1      9.7999999999999972      45.079999999999998      35.280000000000001
   198   1      7.8399999999999954      43.119999999999997      39.199999999999989
   199   1      7.8399999999999954      45.079999999999998      41.159999999999997
   200   1      9.7999999999999972      43.119999999999997      41.159999999999997
   201   1      9.7999999999999972      45.079999999999998      39.199999999999989
   202   1      7.8399999999999954      43.119999999999997      43.119999999999997
   203   1      7.8399999999999954      45.079999999999998      45.079999999999998
   204   1      9.7999999999999972      43.119999999999997      45.079999999999998
   205   1      9.7999999999999972      45.079999999999998      43.119999999999997
   206   1      7.8399999999999954      43.119999999999997      47.039999999999999
   207   1      7.8399999999999954      45.079999999999998                      49
   208   1      9.7999999999999972      43.119999999999997                      49
   209   1      9.7999999999999972      45.079999999999998      47.039999999999999
   210   1      9.7999999999999972      43.119999999999997      52.919999999999987
   211   1      9.7999999999999972      45.079999999999998      50.959999999999994
   212   1      9.7999999999999972      47.039999999999999      29.399999999999999
   213   1      7.8399999999999954      47.039999999999999      31.359999999999999
   214   1      7.8399999999999954                      49                   33.32
   215   1      9.7999999999999972      47.039999999999999                   33.32
   216   1      9.7999999999999972                      49      31.359999999999999
   217   1      7.8399999999999954      47.039999999999999      35.280000000000001
   218   1      7.8399999999999954                      49      37.240000000000002
   219   1      9.7999999999999972      47.039999999999999      37.240000000000002
   220   1      9.7999999999999972                      49      35.280000000000001
   221   1      7.8399999999999954      47.039999999999999      39.199999999999989
   222   1      7.8399999999999954                      49      41.159999999999997
   223   1      9.7999999999999972      47.039999999999999      41.159999999999997
   224   1      9.7999999999999972                      49      39.199999999999989
   225   1      7.8399999999999954      47.039999999999999      43.119999999999997
   226   1      7.8399999999999954                      49      45.079999999999998
   227   1      9.7999999999999972      47.039999999999999      45.079999999999998
   228   1      9.7999999999999972                      49      43.119999999999997
   229   1      7.8399999999999954      47.039999999999999      47.039999999999999
   230   1      9.7999999999999972      47.039999999999999                      49
   231   1      9.7999999999999972                      49      47.039999999999999
   232   1      9.7999999999999972      50.959999999999994                   33.32
   233   1      9.7999999999999972      50.959999999999994      37.240000000000002
   234   1      9.7999999999999972      52.919999999999987      35.280000000000001
   235   1      7.8399999999999954      50.959999999999994      39.199999999999989
   236   1      9.7999999999999972      50.959999999999994      41.159999999999997
   237   1      9.7999999999999972      52.919999999999987      39.199999999999989
   238   1      9.7999999999999972      50.959999999999994      45.079999999999998
   239   1      9.7999999999999972      52.919999999999987      43.119999999999997
   240   1      13.719999999999997      19.599999999999994      37.240000000000002
   241   1      13.719999999999997      21.559999999999999      35.280000000000001
   242   1      13.719999999999997      19.599999999999994      41.159999999999997
   243   1      13.719999999999997      21.559999999999999      39.199999999999989
   244   1      13.719999999999997      21.559999999999999      43.119999999999997
   245   1      13.719999999999997      23.519999999999996      29.399999999999999
   246   1      13.719999999999997      25.479999999999997      27.439999999999994
   247   1      11.759999999999998      25.479999999999997                   33.32
   248   1      13.719999999999997      23.519999999999996                   33.32
   249   1      13.719999999999997      25.479999999999997      31.359999999999999
   250   1      11.759999999999998      23.519999999999996      35.280000000000001
   251   1      11.759999999999998      25.479999999999997      37.240000000000002
   252   1      13.719999999999997      23.519999999999996      37.240000000000002
   253   1      13.719999999999997      25.479999999999997      35.280000000000001
   254   1      11.759999999999998      23.519999999999996      39.199999999999989
   255   1      11.759999999999998      25.479999999999997      41.159999999999997
   256   1      13.719999999999997      23.519999999999996      41.159999999999997
   257   1      13.719999999999997      25.479999999999997      39.199999999999989
   258   1      11.759999999999998      23.519999999999996      43.119999999999997
   259   1      11.759999999999998      25.479999999999997      45.079999999999998
   260   1      13.719999999999997      23.519999999999996      45.079999999999998
   261   1      13.719999999999997      25.479999999999997      43.119999999999997
   262   1      13.719999999999997      23.519999999999996                      49
   263   1      13.719999999999997      25.479999999999997      47.039999999999999
   264   1      13.719999999999997      25.479999999999997      50.959999999999994
   265   1      13.719999999999997      27.439999999999994      25.479999999999997
   266   1      13.719999999999997      29.399999999999999      23.519999999999996
   267   1      11.759999999999998      27.439999999999994      27.439999999999994
   268   1      11.759999999999998      29.399999999999999      29.399999999999999
   269   1      13.719999999999997      27.439999999999994      29.399999999999999
   270   1      13.719999999999997      29.399999999999999      27.439999999999994
   271   1      11.759999999999998      27.439999999999994      31.359999999999999
   272   1      11.759999999999998      29.399999999999999                   33.32
   273   1      13.719999999999997      27.439999999999994                   33.32
   274   1      13.719999999999997      29.399999999999999      31.359999999999999
   275   1      11.759999999999998      27.439999999999994      35.280000000000001
   276   1      11.759999999999998      29.399999999999999      37.240000000000002
   277   1      13.719999999999997      27.439999999999994      37.240000000000002
   278   1      13.719999999999997      29.399999999999999      35.280000000000001
   279   1      11.759999999999998      27.439999999999994      39.199999999999989
   280   1      11.759999999999998      29.399999999999999      41.159999999999997
   281   1      13.719999999999997      27.439999999999994      41.159999999999997
   282   1      13.719999999999997      29.399999999999999      39.199999999999989
   283   1      11.759999999999998      27.439999999999994      43.119999999999997
   284   1      11.759999999999998      29.399999999999999      45.079999999999998
   285   1      13.719999999999997      27.439999999999994      45.079999999999998
   286   1      13.719999999999997      29.399999999999999      43.119999999999997
   287   1      11.759999999999998      27.439999999999994      47.039999999999999
   288   1      11.759999999999998      29.399999999999999                      49
   289   1      13.719999999999997      27.439999999999994                      49
   290   1      13.719999999999997      29.399999999999999      47.039999999999999
   291   1      11.759999999999998      27.439999999999994      50.959999999999994
   292   1      13.719999999999997      27.439999999999994      52.919999999999987
   293   1      13.719999999999997      29.399999999999999      50.959999999999994
   294   1      13.719999999999997      29.399999999999999      54.879999999999988
   295   1      11.759999999999998                   33.32      25.479999999999997
   296   1      13.719999999999997      31.359999999999999      25.479999999999997
   297   1      13.719999999999997                   33.32      23.519999999999996
   298   1      11.759999999999998      31.359999999999999      27.439999999999994
   299   1      11.759999999999998                   33.32      29.399999999999999
   300   1      13.719999999999997      31.359999999999999      29.399999999999999
   301   1      13.719999999999997                   33.32      27.439999999999994
   302   1      11.759999999999998      31.359999999999999      31.359999999999999
   303   1      11.759999999999998                   33.32                   33.32
   304   1      13.719999999999997      31.359999999999999                   33.32
   305   1      13.719999999999997                   33.32      31.359999999999999
   306   1      11.759999999999998      31.359999999999999      35.280000000000001
   307   1      11.759999999999998                   33.32      37.240000000000002
   308   1      13.719999999999997      31.359999999999999      37.240000000000002
   309   1      13.719999999999997                   33.32      35.280000000000001
   310   1      11.759999999999998      31.359999999999999      39.199999999999989
   311   1      11.759999999999998                   33.32      41.159999999999997
   312   1      13.719999999999997      31.359999999999999      41.159999999999997
   313   1      13.719999999999997                   33.32      39.199999999999989
   314   1      11.759999999999998      31.359999999999999      43.119999999999997
   315   1      11.759999999999998                   33.32      45.079999999999998
   316   1      13.719999999999997      31.359999999999999      45.079999999999998
   317   1      13.719999999999997                   33.32      43.119999999999997
   318   1      11.759999999999998      31.359999999999999      47.039999999999999
   319   1      11.759999999999998                   33.32                      49
   320   1      13.719999999999997      31.359999999999999                      49
   321   1      13.719999999999997                   33.32      47.039999999999999
   322   1      11.759999999999998      31.359999999999999      50.959999999999994
   323   1      11.759999999999998                   33.32      52.919999999999987
   324   1      13.719999999999997      31.359999999999999      52.919999999999987
   325   1      13.719999999999997                   33.32      50.959999999999994
   326   1      13.719999999999997                   33.32      54.879999999999988
   327   1      13.719999999999997      35.280000000000001      21.559999999999999
   328   1      13.719999999999997      37.240000000000002      19.599999999999994
   329   1      11.759999999999998      35.280000000000001      23.519999999999996
   330   1      11.759999999999998      37.240000000000002      25.479999999999997
   331   1      13.719999999999997      35.280000000000001      25.479999999999997
   332   1      13.719999999999997      37.240000000000002      23.519999999999996
   333   1      11.759999999999998      35.280000000000001      27.439999999999994
   334   1      11.759999999999998      37.240000000000002      29.399999999999999
   335   1      13.719999999999997      35.280000000000001      29.399999999999999
   336   1      13.719999999999997      37.240000000000002      27.439999999999994
   337   1      11.759999999999998      35.280000000000001      31.359999999999999
   338   1      11.759999999999998      37.240000000000002                   33.32
   339   1      13.719999999999997      35.280000000000001                   33.32
   340   1      13.719999999999997      37.240000000000002      31.359999999999999
   341   1      11.759999999999998      35.280000000000001      35.280000000000001
   342   1      11.759999999999998      37.240000000000002      37.240000000000002
   343   1      13.719999999999997      35.280000000000001      37.240000000000002
   344   1      13.719999999999997      37.240000000000002      35.280000000000001
   345   1      11.759999999999998      35.280000000000001      39.199999999999989
   346   1      11.759999999999998      37.240000000000002      41.159999999999997
   347   1      13.719999999999997      35.280000000000001      41.159999999999997
   348   1      13.719999999999997      37.240000000000002      39.199999999999989
   349   1      11.759999999999998      35.280000000000001      43.119999999999997
   350   1      11.759999999999998      37.240000000000002      45.079999999999998
   351   1      13.719999999999997      35.280000000000001      45.079999999999998
   352   1      13.719999999999997      37.240000000000002      43.119999999999997
   353   1      11.759999999999998      35.280000000000001      47.039999999999999
   354   1      11.759999999999998      37.240000000000002                      49
   355   1      13.719999999999997      35.280000000000001                      49
   356   1      13.719999999999997      37.240000000000002      47.039999999999999
   357   1      11.759999999999998      35.280000000000001      50.959999999999994
   358   1      11.759999999999998      37.240000000000002      52.919999999999987