model_files/PdNi/PdNi_30000/PdNi_110/PdNi_110_fcc_31263_temp.data (written by ASE) 

31263 	 atoms 
2  atom types
0.0                     113  xlo xhi
0.0                     113  ylo yhi
0.0                     113  zlo zhi


Atoms 

     1   1  7.1054273576010019e-15      54.012499999999996      54.012499999999996
     2   1      1.8625000000000045      52.149999999999999      54.012499999999996
     3   1      1.8625000000000045      54.012499999999996      52.149999999999999
     4   1  7.1054273576010019e-15      54.012499999999996      57.737500000000004
     5   1      1.8625000000000045      52.149999999999999      57.737500000000004
     6   1      1.8625000000000045      54.012499999999996      55.875000000000007
     7   1      1.8625000000000045      54.012499999999996      59.600000000000001
     8   1  7.1054273576010019e-15      57.737500000000004      54.012499999999996
     9   1      1.8625000000000045      55.875000000000007      54.012499999999996
    10   1      1.8625000000000045      57.737500000000004      52.149999999999999
    11   1  7.1054273576010019e-15      55.875000000000007      55.875000000000007
    12   1  7.1054273576010019e-15      57.737500000000004      57.737500000000004
    13   1      1.8625000000000045      55.875000000000007      57.737500000000004
    14   1      1.8625000000000045      57.737500000000004      55.875000000000007
    15   1      1.8625000000000045      57.737500000000004      59.600000000000001
    16   1      1.8625000000000045      59.600000000000001      54.012499999999996
    17   1      1.8625000000000045      59.600000000000001      57.737500000000004
    18   1       3.725000000000009      50.287500000000001      50.287500000000001
    19   1      5.5875000000000057      48.425000000000004      50.287500000000001
    20   1      5.5875000000000057      50.287500000000001      48.425000000000004
    21   1       3.725000000000009      50.287500000000001      54.012499999999996
    22   1      5.5875000000000057      48.425000000000004      54.012499999999996
    23   1      5.5875000000000057      50.287500000000001      52.149999999999999
    24   1       3.725000000000009      50.287500000000001      57.737500000000004
    25   1      5.5875000000000057      48.425000000000004      57.737500000000004
    26   1      5.5875000000000057      50.287500000000001      55.875000000000007
    27   1       3.725000000000009      50.287500000000001      61.462499999999999
    28   1      5.5875000000000057      48.425000000000004      61.462499999999999
    29   1      5.5875000000000057      50.287500000000001      59.600000000000001
    30   1      5.5875000000000057      50.287500000000001      63.324999999999996
    31   1       3.725000000000009      54.012499999999996      50.287500000000001
    32   1      5.5875000000000057      52.149999999999999      50.287500000000001
    33   1      5.5875000000000057      54.012499999999996      48.425000000000004
    34   1       3.725000000000009      52.149999999999999      52.149999999999999
    35   1       3.725000000000009      54.012499999999996      54.012499999999996
    36   1      5.5875000000000057      52.149999999999999      54.012499999999996
    37   1      5.5875000000000057      54.012499999999996      52.149999999999999
    38   1       3.725000000000009      52.149999999999999      55.875000000000007
    39   1       3.725000000000009      54.012499999999996      57.737500000000004
    40   1      5.5875000000000057      52.149999999999999      57.737500000000004
    41   1      5.5875000000000057      54.012499999999996      55.875000000000007
    42   1       3.725000000000009      52.149999999999999      59.600000000000001
    43   1       3.725000000000009      54.012499999999996      61.462499999999999
    44   1      5.5875000000000057      52.149999999999999      61.462499999999999
    45   1      5.5875000000000057      54.012499999999996      59.600000000000001
    46   1      5.5875000000000057      54.012499999999996      63.324999999999996
    47   1       3.725000000000009      57.737500000000004      50.287500000000001
    48   1      5.5875000000000057      55.875000000000007      50.287500000000001
    49   1      5.5875000000000057      57.737500000000004      48.425000000000004
    50   1       3.725000000000009      55.875000000000007      52.149999999999999
    51   1       3.725000000000009      57.737500000000004      54.012499999999996
    52   1      5.5875000000000057      55.875000000000007      54.012499999999996
    53   1      5.5875000000000057      57.737500000000004      52.149999999999999
    54   1       3.725000000000009      55.875000000000007      55.875000000000007
    55   1       3.725000000000009      57.737500000000004      57.737500000000004
    56   1      5.5875000000000057      55.875000000000007      57.737500000000004
    57   1      5.5875000000000057      57.737500000000004      55.875000000000007
    58   1       3.725000000000009      55.875000000000007      59.600000000000001
    59   1       3.725000000000009      57.737500000000004      61.462499999999999
    60   1      5.5875000000000057      55.875000000000007      61.462499999999999
    61   1      5.5875000000000057      57.737500000000004      59.600000000000001
    62   1      5.5875000000000057      57.737500000000004      63.324999999999996
    63   1       3.725000000000009      61.462499999999999      50.287500000000001
    64   1      5.5875000000000057      59.600000000000001      50.287500000000001
    65   1      5.5875000000000057      61.462499999999999      48.425000000000004
    66   1       3.725000000000009      59.600000000000001      52.149999999999999
    67   1       3.725000000000009      61.462499999999999      54.012499999999996
    68   1      5.5875000000000057      59.600000000000001      54.012499999999996
    69   1      5.5875000000000057      61.462499999999999      52.149999999999999
    70   1       3.725000000000009      59.600000000000001      55.875000000000007
    71   1       3.725000000000009      61.462499999999999      57.737500000000004
    72   1      5.5875000000000057      59.600000000000001      57.737500000000004
    73   1      5.5875000000000057      61.462499999999999      55.875000000000007
    74   1       3.725000000000009      59.600000000000001      59.600000000000001
    75   1       3.725000000000009      61.462499999999999      61.462499999999999
    76   1      5.5875000000000057      59.600000000000001      61.462499999999999
    77   1      5.5875000000000057      61.462499999999999      59.600000000000001
    78   1      5.5875000000000057      61.462499999999999      63.324999999999996
    79   1      5.5875000000000057      63.324999999999996      50.287500000000001
    80   1      5.5875000000000057      63.324999999999996      54.012499999999996
    81   1      5.5875000000000057      63.324999999999996      57.737500000000004
    82   1      5.5875000000000057      63.324999999999996      61.462499999999999
    83   1      7.4500000000000099      46.562500000000007      46.562500000000007
    84   1      9.3125000000000071       44.70000000000001      46.562500000000007
    85   1      9.3125000000000071      46.562500000000007       44.70000000000001
    86   1      7.4500000000000099      46.562500000000007      50.287500000000001
    87   1      9.3125000000000071       44.70000000000001      50.287500000000001
    88   1      9.3125000000000071      46.562500000000007      48.425000000000004
    89   1      7.4500000000000099      46.562500000000007      54.012499999999996
    90   1      9.3125000000000071       44.70000000000001      54.012499999999996
    91   1      9.3125000000000071      46.562500000000007      52.149999999999999
    92   1      7.4500000000000099      46.562500000000007      57.737500000000004
    93   1      9.3125000000000071       44.70000000000001      57.737500000000004
    94   1      9.3125000000000071      46.562500000000007      55.875000000000007
    95   1      7.4500000000000099      46.562500000000007      61.462499999999999
    96   1      9.3125000000000071       44.70000000000001      61.462499999999999
    97   1      9.3125000000000071      46.562500000000007      59.600000000000001
    98   1      7.4500000000000099      46.562500000000007                 65.1875
    99   1      9.3125000000000071       44.70000000000001                 65.1875
   100   1      9.3125000000000071      46.562500000000007      63.324999999999996
   101   1      9.3125000000000071      46.562500000000007      67.050000000000011
   102   1      7.4500000000000099      50.287500000000001      46.562500000000007
   103   1      9.3125000000000071      48.425000000000004      46.562500000000007
   104   1      9.3125000000000071      50.287500000000001       44.70000000000001
   105   1      7.4500000000000099      48.425000000000004      48.425000000000004
   106   1      7.4500000000000099      50.287500000000001      50.287500000000001
   107   1      9.3125000000000071      48.425000000000004      50.287500000000001
   108   1      9.3125000000000071      50.287500000000001      48.425000000000004
   109   1      7.4500000000000099      48.425000000000004      52.149999999999999
   110   1      7.4500000000000099      50.287500000000001      54.012499999999996
   111   1      9.3125000000000071      48.425000000000004      54.012499999999996
   112   1      9.3125000000000071      50.287500000000001      52.149999999999999
   113   1      7.4500000000000099      48.425000000000004      55.875000000000007
   114   1      7.4500000000000099      50.287500000000001      57.737500000000004
   115   1      9.3125000000000071      48.425000000000004      57.737500000000004
   116   1      9.3125000000000071      50.287500000000001      55.875000000000007
   117   1      7.4500000000000099      48.425000000000004      59.600000000000001
   118   1      7.4500000000000099      50.287500000000001      61.462499999999999
   119   1      9.3125000000000071      48.425000000000004      61.462499999999999
   120   1      9.3125000000000071      50.287500000000001      59.600000000000001
   121   1      7.4500000000000099      48.425000000000004      63.324999999999996
   122   1      7.4500000000000099      50.287500000000001                 65.1875
   123   1      9.3125000000000071      48.425000000000004                 65.1875
   124   1      9.3125000000000071      50.287500000000001      63.324999999999996
   125   1      9.3125000000000071      50.287500000000001      67.050000000000011
   126   1      7.4500000000000099      54.012499999999996      46.562500000000007
   127   1      9.3125000000000071      52.149999999999999      46.562500000000007
   128   1      9.3125000000000071      54.012499999999996       44.70000000000001
   129   1      7.4500000000000099      52.149999999999999      48.425000000000004
   130   1      7.4500000000000099      54.012499999999996      50.287500000000001
   131   1      9.3125000000000071      52.149999999999999      50.287500000000001
   132   1      9.3125000000000071      54.012499999999996      48.425000000000004
   133   1      7.4500000000000099      52.149999999999999      52.149999999999999
   134   1      7.4500000000000099      54.012499999999996      54.012499999999996
   135   1      9.3125000000000071      52.149999999999999      54.012499999999996
   136   1      9.3125000000000071      54.012499999999996      52.149999999999999
   137   1      7.4500000000000099      52.149999999999999      55.875000000000007
   138   1      7.4500000000000099      54.012499999999996      57.737500000000004
   139   1      9.3125000000000071      52.149999999999999      57.737500000000004
   140   1      9.3125000000000071      54.012499999999996      55.875000000000007
   141   1      7.4500000000000099      52.149999999999999      59.600000000000001
   142   1      7.4500000000000099      54.012499999999996      61.462499999999999
   143   1      9.3125000000000071      52.149999999999999      61.462499999999999
   144   1      9.3125000000000071      54.012499999999996      59.600000000000001
   145   1      7.4500000000000099      52.149999999999999      63.324999999999996
   146   1      7.4500000000000099      54.012499999999996                 65.1875
   147   1      9.3125000000000071      52.149999999999999                 65.1875
   148   1      9.3125000000000071      54.012499999999996      63.324999999999996
   149   1      9.3125000000000071      54.012499999999996      67.050000000000011
   150   1      7.4500000000000099      57.737500000000004      46.562500000000007
   151   1      9.3125000000000071      55.875000000000007      46.562500000000007
   152   1      9.3125000000000071      57.737500000000004       44.70000000000001
   153   1      7.4500000000000099      55.875000000000007      48.425000000000004
   154   1      7.4500000000000099      57.737500000000004      50.287500000000001
   155   1      9.3125000000000071      55.875000000000007      50.287500000000001
   156   1      9.3125000000000071      57.737500000000004      48.425000000000004
   157   1      7.4500000000000099      55.875000000000007      52.149999999999999
   158   1      7.4500000000000099      57.737500000000004      54.012499999999996
   159   1      9.3125000000000071      55.875000000000007      54.012499999999996
   160   1      9.3125000000000071      57.737500000000004      52.149999999999999
   161   1      7.4500000000000099      55.875000000000007      55.875000000000007
   162   1      7.4500000000000099      57.737500000000004      57.737500000000004
   163   1      9.3125000000000071      55.875000000000007      57.737500000000004
   164   1      9.3125000000000071      57.737500000000004      55.875000000000007
   165   1      7.4500000000000099      55.875000000000007      59.600000000000001
   166   1      7.4500000000000099      57.737500000000004      61.462499999999999
   167   1      9.3125000000000071      55.875000000000007      61.462499999999999
   168   1      9.3125000000000071      57.737500000000004      59.600000000000001
   169   1      7.4500000000000099      55.875000000000007      63.324999999999996
   170   1      7.4500000000000099      57.737500000000004                 65.1875
   171   1      9.3125000000000071      55.875000000000007                 65.1875
   172   1      9.3125000000000071      57.737500000000004      63.324999999999996
   173   1      9.3125000000000071      57.737500000000004      67.050000000000011
   174   1      7.4500000000000099      61.462499999999999      46.562500000000007
   175   1      9.3125000000000071      59.600000000000001      46.562500000000007
   176   1      9.3125000000000071      61.462499999999999       44.70000000000001
   177   1      7.4500000000000099      59.600000000000001      48.425000000000004
   178   1      7.4500000000000099      61.462499999999999      50.287500000000001
   179   1      9.3125000000000071      59.600000000000001      50.287500000000001
   180   1      9.3125000000000071      61.462499999999999      48.425000000000004
   181   1      7.4500000000000099      59.600000000000001      52.149999999999999
   182   1      7.4500000000000099      61.462499999999999      54.012499999999996
   183   1      9.3125000000000071      59.600000000000001      54.012499999999996
   184   1      9.3125000000000071      61.462499999999999      52.149999999999999
   185   1      7.4500000000000099      59.600000000000001      55.875000000000007
   186   1      7.4500000000000099      61.462499999999999      57.737500000000004
   187   1      9.3125000000000071      59.600000000000001      57.737500000000004
   188   1      9.3125000000000071      61.462499999999999      55.875000000000007
   189   1      7.4500000000000099      59.600000000000001      59.600000000000001
   190   1      7.4500000000000099      61.462499999999999      61.462499999999999
   191   1      9.3125000000000071      59.600000000000001      61.462499999999999
   192   1      9.3125000000000071      61.462499999999999      59.600000000000001
   193   1      7.4500000000000099      59.600000000000001      63.324999999999996
   194   1      7.4500000000000099      61.462499999999999                 65.1875
   195   1      9.3125000000000071      59.600000000000001                 65.1875
   196   1      9.3125000000000071      61.462499999999999      63.324999999999996
   197   1      9.3125000000000071      61.462499999999999      67.050000000000011
   198   1      7.4500000000000099                 65.1875      46.562500000000007
   199   1      9.3125000000000071      63.324999999999996      46.562500000000007
   200   1      9.3125000000000071                 65.1875       44.70000000000001
   201   1      7.4500000000000099      63.324999999999996      48.425000000000004
   202   1      7.4500000000000099                 65.1875      50.287500000000001
   203   1      9.3125000000000071      63.324999999999996      50.287500000000001
   204   1      9.3125000000000071                 65.1875      48.425000000000004
   205   1      7.4500000000000099      63.324999999999996      52.149999999999999
   206   1      7.4500000000000099                 65.1875      54.012499999999996
   207   1      9.3125000000000071      63.324999999999996      54.012499999999996
   208   1      9.3125000000000071                 65.1875      52.149999999999999
   209   1      7.4500000000000099      63.324999999999996      55.875000000000007
   210   1      7.4500000000000099                 65.1875      57.737500000000004
   211   1      9.3125000000000071      63.324999999999996      57.737500000000004
   212   1      9.3125000000000071                 65.1875      55.875000000000007
   213   1      7.4500000000000099      63.324999999999996      59.600000000000001
   214   1      7.4500000000000099                 65.1875      61.462499999999999
   215   1      9.3125000000000071      63.324999999999996      61.462499999999999
   216   1      9.3125000000000071                 65.1875      59.600000000000001
   217   1      7.4500000000000099      63.324999999999996      63.324999999999996
   218   1      7.4500000000000099                 65.1875                 65.1875
   219   1      9.3125000000000071      63.324999999999996                 65.1875
   220   1      9.3125000000000071                 65.1875      63.324999999999996
   221   1      9.3125000000000071                 65.1875      67.050000000000011
   222   1      9.3125000000000071      67.050000000000011      46.562500000000007
   223   1      9.3125000000000071      67.050000000000011      50.287500000000001
   224   1      9.3125000000000071      67.050000000000011      54.012499999999996
   225   1      9.3125000000000071      67.050000000000011      57.737500000000004
   226   1      9.3125000000000071      67.050000000000011      61.462499999999999
   227   1      9.3125000000000071      67.050000000000011                 65.1875
   228   1      11.175000000000004      42.837500000000006      42.837500000000006
   229   1                 13.0375      40.975000000000009      42.837500000000006
   230   1                 13.0375      42.837500000000006      40.975000000000009
   231   1      11.175000000000004      42.837500000000006      46.562500000000007
   232   1                 13.0375      40.975000000000009      46.562500000000007
   233   1                 13.0375      42.837500000000006       44.70000000000001
   234   1      11.175000000000004      42.837500000000006      50.287500000000001
   235   1                 13.0375      40.975000000000009      50.287500000000001
   236   1                 13.0375      42.837500000000006      48.425000000000004
   237   1      11.175000000000004      42.837500000000006      54.012499999999996
   238   1                 13.0375      40.975000000000009      54.012499999999996
   239   1                 13.0375      42.837500000000006      52.149999999999999
   240   1      11.175000000000004      42.837500000000006      57.737500000000004
   241   1                 13.0375      40.975000000000009      57.737500000000004
   242   1                 13.0375      42.837500000000006      55.875000000000007
   243   1      11.175000000000004      42.837500000000006      61.462499999999999
   244   1                 13.0375      40.975000000000009      61.462499999999999
   245   1                 13.0375      42.837500000000006      59.600000000000001
   246   1      11.175000000000004      42.837500000000006                 65.1875
   247   1                 13.0375      40.975000000000009                 65.1875
   248   1                 13.0375      42.837500000000006      63.324999999999996
   249   1      11.175000000000004      42.837500000000006      68.912500000000009
   250   1                 13.0375      40.975000000000009      68.912500000000009
   251   1                 13.0375      42.837500000000006      67.050000000000011
   252   1                 13.0375      42.837500000000006      70.775000000000006
   253   1      11.175000000000004      46.562500000000007      42.837500000000006
   254   1                 13.0375       44.70000000000001      42.837500000000006
   255   1                 13.0375      46.562500000000007      40.975000000000009
   256   1      11.175000000000004       44.70000000000001       44.70000000000001
   257   1      11.175000000000004      46.562500000000007      46.562500000000007
   258   1                 13.0375       44.70000000000001      46.562500000000007
   259   1                 13.0375      46.562500000000007       44.70000000000001
   260   1      11.175000000000004       44.70000000000001      48.425000000000004
   261   1      11.175000000000004      46.562500000000007      50.287500000000001
   262   1                 13.0375       44.70000000000001      50.287500000000001
   263   1                 13.0375      46.562500000000007      48.425000000000004
   264   1      11.175000000000004       44.70000000000001      52.149999999999999
   265   1      11.175000000000004      46.562500000000007      54.012499999999996
   266   1                 13.0375       44.70000000000001      54.012499999999996
   267   1                 13.0375      46.562500000000007      52.149999999999999
   268   1      11.175000000000004       44.70000000000001      55.875000000000007
   269   1      11.175000000000004      46.562500000000007      57.737500000000004
   270   1                 13.0375       44.70000000000001      57.737500000000004
   271   1                 13.0375      46.562500000000007      55.875000000000007
   272   1      11.175000000000004       44.70000000000001      59.600000000000001
   273   1      11.175000000000004      46.562500000000007      61.462499999999999
   274   1                 13.0375       44.70000000000001      61.462499999999999
   275   1                 13.0375      46.562500000000007      59.600000000000001
   276   1      11.175000000000004       44.70000000000001      63.324999999999996
   277   1      11.175000000000004      46.562500000000007                 65.1875
   278   1                 13.0375       44.70000000000001                 65.1875
   279   1                 13.0375      46.562500000000007      63.324999999999996
   280   1      11.175000000000004       44.70000000000001      67.050000000000011
   281   1      11.175000000000004      46.562500000000007      68.912500000000009
   282   1                 13.0375       44.70000000000001      68.912500000000009
   283   1                 13.0375      46.562500000000007      67.050000000000011
   284   1                 13.0375      46.562500000000007      70.775000000000006
   285   1      11.175000000000004      50.287500000000001      42.837500000000006
   286   1                 13.0375      48.425000000000004      42.837500000000006
   287   1                 13.0375      50.287500000000001      40.975000000000009
   288   1      11.175000000000004      48.425000000000004       44.70000000000001
   289   1      11.175000000000004      50.287500000000001      46.562500000000007
   290   1                 13.0375      48.425000000000004      46.562500000000007
   291   1                 13.0375      50.287500000000001       44.70000000000001
   292   1      11.175000000000004      48.425000000000004      48.425000000000004
   293   1      11.175000000000004      50.287500000000001      50.287500000000001
   294   1                 13.0375      48.425000000000004      50.287500000000001
   295   1                 13.0375      50.287500000000001      48.425000000000004
   296   1      11.175000000000004      48.425000000000004      52.149999999999999
   297   1      11.175000000000004      50.287500000000001      54.012499999999996
   298   1                 13.0375      48.425000000000004      54.012499999999996
   299   1                 13.0375      50.287500000000001      52.149999999999999
   300   1      11.175000000000004      48.425000000000004      55.875000000000007
   301   1      11.175000000000004      50.287500000000001      57.737500000000004
   302   1                 13.0375      48.425000000000004      57.737500000000004
   303   1                 13.0375      50.287500000000001      55.875000000000007
   304   1      11.175000000000004      48.425000000000004      59.600000000000001
   305   1      11.175000000000004      50.287500000000001      61.462499999999999
   306   1                 13.0375      48.425000000000004      61.462499999999999
   307   1                 13.0375      50.287500000000001      59.600000000000001
   308   1      11.175000000000004      48.425000000000004      63.324999999999996
   309   1      11.175000000000004      50.287500000000001                 65.1875
   310   1                 13.0375      48.425000000000004                 65.1875
   311   1                 13.0375      50.287500000000001      63.324999999999996
   312   1      11.175000000000004      48.425000000000004      67.050000000000011
   313   1      11.175000000000004      50.287500000000001      68.912500000000009
   314   1                 13.0375      48.425000000000004      68.912500000000009
   315   1                 13.0375      50.287500000000001      67.050000000000011
   316   1                 13.0375      50.287500000000001      70.775000000000006
   317   1      11.175000000000004      54.012499999999996      42.837500000000006
   318   1                 13.0375      52.149999999999999      42.837500000000006
   319   1                 13.0375      54.012499999999996      40.975000000000009
   320   1      11.175000000000004      52.149999999999999       44.70000000000001
   321   1      11.175000000000004      54.012499999999996      46.562500000000007
   322   1                 13.0375      52.149999999999999      46.562500000000007
   323   1                 13.0375      54.012499999999996       44.70000000000001
   324   1      11.175000000000004      52.149999999999999      48.425000000000004
   325   1      11.175000000000004      54.012499999999996      50.287500000000001
   326   1                 13.0375      52.149999999999999      50.287500000000001
   327   1                 13.0375      54.012499999999996      48.425000000000004
   328   1      11.175000000000004      52.149999999999999      52.149999999999999
   329   1      11.175000000000004      54.012499999999996      54.012499999999996
   330   1                 13.0375      52.149999999999999      54.012499999999996
   331   1                 13.0375      54.012499999999996      52.149999999999999
   332   1      11.175000000000004      52.149999999999999      55.875000000000007
   333   1      11.175000000000004      54.012499999999996      57.737500000000004
   334   1                 13.0375      52.149999999999999      57.737500000000004
   335   1                 13.0375      54.012499999999996      55.875000000000007
   336   1      11.175000000000004      52.149999999999999      59.600000000000001
   337   1      11.175000000000004      54.012499999999996      61.462499999999999
   338   1                 13.0375      52.149999999999999      61.462499999999999
   339   1                 13.0375      54.012499999999996      59.600000000000001
   340   1      11.175000000000004      52.149999999999999      63.324999999999996
   341   1      11.175000000000004      54.012499999999996                 65.1875
   342   1                 13.0375      52.149999999999999                 65.1875
   343   1                 13.0375      54.012499999999996      63.324999999999996
   344   1      11.175000000000004      52.149999999999999      67.050000000000011
   345   1      11.175000000000004      54.012499999999996      68.912500000000009
   346   1                 13.0375      52.149999999999999      68.912500000000009
   347   1                 13.0375      54.012499999999996      67.050000000000011
   348   1                 13.0375      54.012499999999996      70.775000000000006
   349   1      11.175000000000004      57.737500000000004      42.837500000000006
   350   1                 13.0375      55.875000000000007      42.837500000000006
   351   1                 13.0375      57.737500000000004      40.975000000000009
   352   1      11.175000000000004      55.875000000000007       44.70000000000001
   353   1      11.175000000000004      57.737500000000004      46.562500000000007
   354   1                 13.0375      55.875000000000007      46.562500000000007
   355   1                 13.0375      57.737500000000004       44.70000000000001
   356   1      11.175000000000004      55.875000000000007      48.425000000000004
   357   1      11.175000000000004      57.737500000000004      50.287500000000001
   358   1                 13.0375      55.875000000000007      50.287500000000001