model_files/Cu/Cu_30000/Cu_410/data.Cu_410_fcc_29755 (written by ASE) 

29755 	 atoms 
1  atom types
0.0                      81  xlo xhi
0.0                      81  ylo yhi
0.0                      81  zlo zhi


Atoms 

     1   1      1.8049999999999997      28.879999999999999      30.684999999999999
     2   1      1.8049999999999997      30.684999999999999      28.879999999999999
     3   1      1.8049999999999997      28.879999999999999      34.295000000000002
     4   1      1.8049999999999997      30.684999999999999      32.490000000000002
     5   1      1.8049999999999997      28.879999999999999      37.905000000000001
     6   1      1.8049999999999997      30.684999999999999      36.100000000000001
     7   1      1.8049999999999997      28.879999999999999      41.514999999999993
     8   1      1.8049999999999997      30.684999999999999      39.710000000000001
     9   1      1.8049999999999997      28.879999999999999      45.124999999999993
    10   1      1.8049999999999997      30.684999999999999      43.319999999999993
    11   1      1.8049999999999997      28.879999999999999      48.734999999999992
    12   1      1.8049999999999997      30.684999999999999      46.929999999999993
    13   1      1.8049999999999997      30.684999999999999      50.539999999999999
    14   1      1.8049999999999997      32.490000000000002      30.684999999999999
    15   1      1.8049999999999997      34.295000000000002      28.879999999999999
    16   1      1.8049999999999997      32.490000000000002      34.295000000000002
    17   1      1.8049999999999997      34.295000000000002      32.490000000000002
    18   1      1.8049999999999997      32.490000000000002      37.905000000000001
    19   1      1.8049999999999997      34.295000000000002      36.100000000000001
    20   1      1.8049999999999997      32.490000000000002      41.514999999999993
    21   1      1.8049999999999997      34.295000000000002      39.710000000000001
    22   1      1.8049999999999997      32.490000000000002      45.124999999999993
    23   1      1.8049999999999997      34.295000000000002      43.319999999999993
    24   1      1.8049999999999997      32.490000000000002      48.734999999999992
    25   1      1.8049999999999997      34.295000000000002      46.929999999999993
    26   1      1.8049999999999997      34.295000000000002      50.539999999999999
    27   1      1.8049999999999997      36.100000000000001      30.684999999999999
    28   1      1.8049999999999997      37.905000000000001      28.879999999999999
    29   1      1.8049999999999997      36.100000000000001      34.295000000000002
    30   1      1.8049999999999997      37.905000000000001      32.490000000000002
    31   1                       0      36.100000000000001      36.100000000000001
    32   1                       0      37.905000000000001      37.905000000000001
    33   1      1.8049999999999997      36.100000000000001      37.905000000000001
    34   1      1.8049999999999997      37.905000000000001      36.100000000000001
    35   1                       0      36.100000000000001      39.710000000000001
    36   1                       0      37.905000000000001      41.514999999999993
    37   1      1.8049999999999997      36.100000000000001      41.514999999999993
    38   1      1.8049999999999997      37.905000000000001      39.710000000000001
    39   1                       0      36.100000000000001      43.319999999999993
    40   1      1.8049999999999997      36.100000000000001      45.124999999999993
    41   1      1.8049999999999997      37.905000000000001      43.319999999999993
    42   1      1.8049999999999997      36.100000000000001      48.734999999999992
    43   1      1.8049999999999997      37.905000000000001      46.929999999999993
    44   1      1.8049999999999997      37.905000000000001      50.539999999999999
    45   1      1.8049999999999997      39.710000000000001      30.684999999999999
    46   1      1.8049999999999997      41.514999999999993      28.879999999999999
    47   1      1.8049999999999997      39.710000000000001      34.295000000000002
    48   1      1.8049999999999997      41.514999999999993      32.490000000000002
    49   1                       0      39.710000000000001      36.100000000000001
    50   1                       0      41.514999999999993      37.905000000000001
    51   1      1.8049999999999997      39.710000000000001      37.905000000000001
    52   1      1.8049999999999997      41.514999999999993      36.100000000000001
    53   1                       0      39.710000000000001      39.710000000000001
    54   1                       0      41.514999999999993      41.514999999999993
    55   1      1.8049999999999997      39.710000000000001      41.514999999999993
    56   1      1.8049999999999997      41.514999999999993      39.710000000000001
    57   1                       0      39.710000000000001      43.319999999999993
    58   1      1.8049999999999997      39.710000000000001      45.124999999999993
    59   1      1.8049999999999997      41.514999999999993      43.319999999999993
    60   1      1.8049999999999997      39.710000000000001      48.734999999999992
    61   1      1.8049999999999997      41.514999999999993      46.929999999999993
    62   1      1.8049999999999997      41.514999999999993      50.539999999999999
    63   1      1.8049999999999997      43.319999999999993      30.684999999999999
    64   1      1.8049999999999997      45.124999999999993      28.879999999999999
    65   1      1.8049999999999997      43.319999999999993      34.295000000000002
    66   1      1.8049999999999997      45.124999999999993      32.490000000000002
    67   1                       0      43.319999999999993      36.100000000000001
    68   1      1.8049999999999997      43.319999999999993      37.905000000000001
    69   1      1.8049999999999997      45.124999999999993      36.100000000000001
    70   1                       0      43.319999999999993      39.710000000000001
    71   1      1.8049999999999997      43.319999999999993      41.514999999999993
    72   1      1.8049999999999997      45.124999999999993      39.710000000000001
    73   1                       0      43.319999999999993      43.319999999999993
    74   1      1.8049999999999997      43.319999999999993      45.124999999999993
    75   1      1.8049999999999997      45.124999999999993      43.319999999999993
    76   1      1.8049999999999997      43.319999999999993      48.734999999999992
    77   1      1.8049999999999997      45.124999999999993      46.929999999999993
    78   1      1.8049999999999997      45.124999999999993      50.539999999999999
    79   1      1.8049999999999997      46.929999999999993      30.684999999999999
    80   1      1.8049999999999997      48.734999999999992      28.879999999999999
    81   1      1.8049999999999997      46.929999999999993      34.295000000000002
    82   1      1.8049999999999997      48.734999999999992      32.490000000000002
    83   1      1.8049999999999997      46.929999999999993      37.905000000000001
    84   1      1.8049999999999997      48.734999999999992      36.100000000000001
    85   1      1.8049999999999997      46.929999999999993      41.514999999999993
    86   1      1.8049999999999997      48.734999999999992      39.710000000000001
    87   1      1.8049999999999997      46.929999999999993      45.124999999999993
    88   1      1.8049999999999997      48.734999999999992      43.319999999999993
    89   1      1.8049999999999997      46.929999999999993      48.734999999999992
    90   1      1.8049999999999997      48.734999999999992      46.929999999999993
    91   1      1.8049999999999997      48.734999999999992      50.539999999999999
    92   1      1.8049999999999997      50.539999999999999      30.684999999999999
    93   1      1.8049999999999997      50.539999999999999      34.295000000000002
    94   1      1.8049999999999997      50.539999999999999      37.905000000000001
    95   1      1.8049999999999997      50.539999999999999      41.514999999999993
    96   1      1.8049999999999997      50.539999999999999      45.124999999999993
    97   1      1.8049999999999997      50.539999999999999      48.734999999999992
    98   1      5.4149999999999991                   14.44      16.245000000000001
    99   1      5.4149999999999991      16.245000000000001                   14.44
   100   1      5.4149999999999991                   14.44                  19.855
   101   1      5.4149999999999991      16.245000000000001      18.050000000000001
   102   1      5.4149999999999991                   14.44      23.464999999999996
   103   1      5.4149999999999991      16.245000000000001      21.659999999999997
   104   1      5.4149999999999991                   14.44      27.074999999999999
   105   1      5.4149999999999991      16.245000000000001                   25.27
   106   1      5.4149999999999991                   14.44      30.684999999999999
   107   1      5.4149999999999991      16.245000000000001      28.879999999999999
   108   1      5.4149999999999991                   14.44      34.295000000000002
   109   1      5.4149999999999991      16.245000000000001      32.490000000000002
   110   1      5.4149999999999991                   14.44      37.905000000000001
   111   1      5.4149999999999991      16.245000000000001      36.100000000000001
   112   1      5.4149999999999991                   14.44      41.514999999999993
   113   1      5.4149999999999991      16.245000000000001      39.710000000000001
   114   1      5.4149999999999991                   14.44      45.124999999999993
   115   1      5.4149999999999991      16.245000000000001      43.319999999999993
   116   1      5.4149999999999991                   14.44      48.734999999999992
   117   1      5.4149999999999991      16.245000000000001      46.929999999999993
   118   1      5.4149999999999991                   14.44      52.344999999999999
   119   1      5.4149999999999991      16.245000000000001      50.539999999999999
   120   1      5.4149999999999991                   14.44      55.954999999999998
   121   1      5.4149999999999991      16.245000000000001      54.149999999999999
   122   1      5.4149999999999991                   14.44      59.564999999999998
   123   1      5.4149999999999991      16.245000000000001      57.759999999999998
   124   1      5.4149999999999991                   14.44      63.175000000000004
   125   1      5.4149999999999991      16.245000000000001      61.369999999999997
   126   1      5.4149999999999991      16.245000000000001      64.980000000000004
   127   1      5.4149999999999991      18.050000000000001      16.245000000000001
   128   1      5.4149999999999991                  19.855                   14.44
   129   1      5.4149999999999991      18.050000000000001                  19.855
   130   1      5.4149999999999991                  19.855      18.050000000000001
   131   1      5.4149999999999991      18.050000000000001      23.464999999999996
   132   1      5.4149999999999991                  19.855      21.659999999999997
   133   1      5.4149999999999991      18.050000000000001      27.074999999999999
   134   1      5.4149999999999991                  19.855                   25.27
   135   1      5.4149999999999991      18.050000000000001      30.684999999999999
   136   1      5.4149999999999991                  19.855      28.879999999999999
   137   1      5.4149999999999991      18.050000000000001      34.295000000000002
   138   1      5.4149999999999991                  19.855      32.490000000000002
   139   1      5.4149999999999991      18.050000000000001      37.905000000000001
   140   1      5.4149999999999991                  19.855      36.100000000000001
   141   1      5.4149999999999991      18.050000000000001      41.514999999999993
   142   1      5.4149999999999991                  19.855      39.710000000000001
   143   1      5.4149999999999991      18.050000000000001      45.124999999999993
   144   1      5.4149999999999991                  19.855      43.319999999999993
   145   1      5.4149999999999991      18.050000000000001      48.734999999999992
   146   1      5.4149999999999991                  19.855      46.929999999999993
   147   1      5.4149999999999991      18.050000000000001      52.344999999999999
   148   1      5.4149999999999991                  19.855      50.539999999999999
   149   1      5.4149999999999991      18.050000000000001      55.954999999999998
   150   1      5.4149999999999991                  19.855      54.149999999999999
   151   1      5.4149999999999991      18.050000000000001      59.564999999999998
   152   1      5.4149999999999991                  19.855      57.759999999999998
   153   1      5.4149999999999991      18.050000000000001      63.175000000000004
   154   1      5.4149999999999991                  19.855      61.369999999999997
   155   1      5.4149999999999991                  19.855      64.980000000000004
   156   1      5.4149999999999991      21.659999999999997      16.245000000000001
   157   1      5.4149999999999991      23.464999999999996                   14.44
   158   1      5.4149999999999991      21.659999999999997                  19.855
   159   1      5.4149999999999991      23.464999999999996      18.050000000000001
   160   1      3.6099999999999994      21.659999999999997      21.659999999999997
   161   1      3.6099999999999994      23.464999999999996      23.464999999999996
   162   1      5.4149999999999991      21.659999999999997      23.464999999999996
   163   1      5.4149999999999991      23.464999999999996      21.659999999999997
   164   1      3.6099999999999994      21.659999999999997                   25.27
   165   1      3.6099999999999994      23.464999999999996      27.074999999999999
   166   1      5.4149999999999991      21.659999999999997      27.074999999999999
   167   1      5.4149999999999991      23.464999999999996                   25.27
   168   1      3.6099999999999994      21.659999999999997      28.879999999999999
   169   1      3.6099999999999994      23.464999999999996      30.684999999999999
   170   1      5.4149999999999991      21.659999999999997      30.684999999999999
   171   1      5.4149999999999991      23.464999999999996      28.879999999999999
   172   1      3.6099999999999994      21.659999999999997      32.490000000000002
   173   1      3.6099999999999994      23.464999999999996      34.295000000000002
   174   1      5.4149999999999991      21.659999999999997      34.295000000000002
   175   1      5.4149999999999991      23.464999999999996      32.490000000000002
   176   1      3.6099999999999994      21.659999999999997      36.100000000000001
   177   1      3.6099999999999994      23.464999999999996      37.905000000000001
   178   1      5.4149999999999991      21.659999999999997      37.905000000000001
   179   1      5.4149999999999991      23.464999999999996      36.100000000000001
   180   1      3.6099999999999994      21.659999999999997      39.710000000000001
   181   1      3.6099999999999994      23.464999999999996      41.514999999999993
   182   1      5.4149999999999991      21.659999999999997      41.514999999999993
   183   1      5.4149999999999991      23.464999999999996      39.710000000000001
   184   1      3.6099999999999994      21.659999999999997      43.319999999999993
   185   1      3.6099999999999994      23.464999999999996      45.124999999999993
   186   1      5.4149999999999991      21.659999999999997      45.124999999999993
   187   1      5.4149999999999991      23.464999999999996      43.319999999999993
   188   1      3.6099999999999994      21.659999999999997      46.929999999999993
   189   1      3.6099999999999994      23.464999999999996      48.734999999999992
   190   1      5.4149999999999991      21.659999999999997      48.734999999999992
   191   1      5.4149999999999991      23.464999999999996      46.929999999999993
   192   1      3.6099999999999994      21.659999999999997      50.539999999999999
   193   1      3.6099999999999994      23.464999999999996      52.344999999999999
   194   1      5.4149999999999991      21.659999999999997      52.344999999999999
   195   1      5.4149999999999991      23.464999999999996      50.539999999999999
   196   1      3.6099999999999994      21.659999999999997      54.149999999999999
   197   1      3.6099999999999994      23.464999999999996      55.954999999999998
   198   1      5.4149999999999991      21.659999999999997      55.954999999999998
   199   1      5.4149999999999991      23.464999999999996      54.149999999999999
   200   1      3.6099999999999994      21.659999999999997      57.759999999999998
   201   1      5.4149999999999991      21.659999999999997      59.564999999999998
   202   1      5.4149999999999991      23.464999999999996      57.759999999999998
   203   1      5.4149999999999991      21.659999999999997      63.175000000000004
   204   1      5.4149999999999991      23.464999999999996      61.369999999999997
   205   1      5.4149999999999991      23.464999999999996      64.980000000000004
   206   1      5.4149999999999991                   25.27      16.245000000000001
   207   1      5.4149999999999991      27.074999999999999                   14.44
   208   1      5.4149999999999991                   25.27                  19.855
   209   1      5.4149999999999991      27.074999999999999      18.050000000000001
   210   1      3.6099999999999994                   25.27      21.659999999999997
   211   1      3.6099999999999994      27.074999999999999      23.464999999999996
   212   1      5.4149999999999991                   25.27      23.464999999999996
   213   1      5.4149999999999991      27.074999999999999      21.659999999999997
   214   1      3.6099999999999994                   25.27                   25.27
   215   1      3.6099999999999994      27.074999999999999      27.074999999999999
   216   1      5.4149999999999991                   25.27      27.074999999999999
   217   1      5.4149999999999991      27.074999999999999                   25.27
   218   1      3.6099999999999994                   25.27      28.879999999999999
   219   1      3.6099999999999994      27.074999999999999      30.684999999999999
   220   1      5.4149999999999991                   25.27      30.684999999999999
   221   1      5.4149999999999991      27.074999999999999      28.879999999999999
   222   1      3.6099999999999994                   25.27      32.490000000000002
   223   1      3.6099999999999994      27.074999999999999      34.295000000000002
   224   1      5.4149999999999991                   25.27      34.295000000000002
   225   1      5.4149999999999991      27.074999999999999      32.490000000000002
   226   1      3.6099999999999994                   25.27      36.100000000000001
   227   1      3.6099999999999994      27.074999999999999      37.905000000000001
   228   1      5.4149999999999991                   25.27      37.905000000000001
   229   1      5.4149999999999991      27.074999999999999      36.100000000000001
   230   1      3.6099999999999994                   25.27      39.710000000000001
   231   1      3.6099999999999994      27.074999999999999      41.514999999999993
   232   1      5.4149999999999991                   25.27      41.514999999999993
   233   1      5.4149999999999991      27.074999999999999      39.710000000000001
   234   1      3.6099999999999994                   25.27      43.319999999999993
   235   1      3.6099999999999994      27.074999999999999      45.124999999999993
   236   1      5.4149999999999991                   25.27      45.124999999999993
   237   1      5.4149999999999991      27.074999999999999      43.319999999999993
   238   1      3.6099999999999994                   25.27      46.929999999999993
   239   1      3.6099999999999994      27.074999999999999      48.734999999999992
   240   1      5.4149999999999991                   25.27      48.734999999999992
   241   1      5.4149999999999991      27.074999999999999      46.929999999999993
   242   1      3.6099999999999994                   25.27      50.539999999999999
   243   1      3.6099999999999994      27.074999999999999      52.344999999999999
   244   1      5.4149999999999991                   25.27      52.344999999999999
   245   1      5.4149999999999991      27.074999999999999      50.539999999999999
   246   1      3.6099999999999994                   25.27      54.149999999999999
   247   1      3.6099999999999994      27.074999999999999      55.954999999999998
   248   1      5.4149999999999991                   25.27      55.954999999999998
   249   1      5.4149999999999991      27.074999999999999      54.149999999999999
   250   1      3.6099999999999994                   25.27      57.759999999999998
   251   1      5.4149999999999991                   25.27      59.564999999999998
   252   1      5.4149999999999991      27.074999999999999      57.759999999999998
   253   1      5.4149999999999991                   25.27      63.175000000000004
   254   1      5.4149999999999991      27.074999999999999      61.369999999999997
   255   1      5.4149999999999991      27.074999999999999      64.980000000000004
   256   1      5.4149999999999991      28.879999999999999      16.245000000000001
   257   1      5.4149999999999991      30.684999999999999                   14.44
   258   1      5.4149999999999991      28.879999999999999                  19.855
   259   1      5.4149999999999991      30.684999999999999      18.050000000000001
   260   1      3.6099999999999994      28.879999999999999      21.659999999999997
   261   1      3.6099999999999994      30.684999999999999      23.464999999999996
   262   1      5.4149999999999991      28.879999999999999      23.464999999999996
   263   1      5.4149999999999991      30.684999999999999      21.659999999999997
   264   1      3.6099999999999994      28.879999999999999                   25.27
   265   1      3.6099999999999994      30.684999999999999      27.074999999999999
   266   1      5.4149999999999991      28.879999999999999      27.074999999999999
   267   1      5.4149999999999991      30.684999999999999                   25.27
   268   1      3.6099999999999994      28.879999999999999      28.879999999999999
   269   1      3.6099999999999994      30.684999999999999      30.684999999999999
   270   1      5.4149999999999991      28.879999999999999      30.684999999999999
   271   1      5.4149999999999991      30.684999999999999      28.879999999999999
   272   1      3.6099999999999994      28.879999999999999      32.490000000000002
   273   1      3.6099999999999994      30.684999999999999      34.295000000000002
   274   1      5.4149999999999991      28.879999999999999      34.295000000000002
   275   1      5.4149999999999991      30.684999999999999      32.490000000000002
   276   1      3.6099999999999994      28.879999999999999      36.100000000000001
   277   1      3.6099999999999994      30.684999999999999      37.905000000000001
   278   1      5.4149999999999991      28.879999999999999      37.905000000000001
   279   1      5.4149999999999991      30.684999999999999      36.100000000000001
   280   1      3.6099999999999994      28.879999999999999      39.710000000000001
   281   1      3.6099999999999994      30.684999999999999      41.514999999999993
   282   1      5.4149999999999991      28.879999999999999      41.514999999999993
   283   1      5.4149999999999991      30.684999999999999      39.710000000000001
   284   1      3.6099999999999994      28.879999999999999      43.319999999999993
   285   1      3.6099999999999994      30.684999999999999      45.124999999999993
   286   1      5.4149999999999991      28.879999999999999      45.124999999999993
   287   1      5.4149999999999991      30.684999999999999      43.319999999999993
   288   1      3.6099999999999994      28.879999999999999      46.929999999999993
   289   1      3.6099999999999994      30.684999999999999      48.734999999999992
   290   1      5.4149999999999991      28.879999999999999      48.734999999999992
   291   1      5.4149999999999991      30.684999999999999      46.929999999999993
   292   1      3.6099999999999994      28.879999999999999      50.539999999999999
   293   1      3.6099999999999994      30.684999999999999      52.344999999999999
   294   1      5.4149999999999991      28.879999999999999      52.344999999999999
   295   1      5.4149999999999991      30.684999999999999      50.539999999999999
   296   1      3.6099999999999994      28.879999999999999      54.149999999999999
   297   1      3.6099999999999994      30.684999999999999      55.954999999999998
   298   1      5.4149999999999991      28.879999999999999      55.954999999999998
   299   1      5.4149999999999991      30.684999999999999      54.149999999999999
   300   1      3.6099999999999994      28.879999999999999      57.759999999999998
   301   1      5.4149999999999991      28.879999999999999      59.564999999999998
   302   1      5.4149999999999991      30.684999999999999      57.759999999999998
   303   1      5.4149999999999991      28.879999999999999      63.175000000000004
   304   1      5.4149999999999991      30.684999999999999      61.369999999999997
   305   1      5.4149999999999991      30.684999999999999      64.980000000000004
   306   1      5.4149999999999991      32.490000000000002      16.245000000000001
   307   1      5.4149999999999991      34.295000000000002                   14.44
   308   1      5.4149999999999991      32.490000000000002                  19.855
   309   1      5.4149999999999991      34.295000000000002      18.050000000000001
   310   1      3.6099999999999994      32.490000000000002      21.659999999999997
   311   1      3.6099999999999994      34.295000000000002      23.464999999999996
   312   1      5.4149999999999991      32.490000000000002      23.464999999999996
   313   1      5.4149999999999991      34.295000000000002      21.659999999999997
   314   1      3.6099999999999994      32.490000000000002                   25.27
   315   1      3.6099999999999994      34.295000000000002      27.074999999999999
   316   1      5.4149999999999991      32.490000000000002      27.074999999999999
   317   1      5.4149999999999991      34.295000000000002                   25.27
   318   1      3.6099999999999994      32.490000000000002      28.879999999999999
   319   1      3.6099999999999994      34.295000000000002      30.684999999999999
   320   1      5.4149999999999991      32.490000000000002      30.684999999999999
   321   1      5.4149999999999991      34.295000000000002      28.879999999999999
   322   1      3.6099999999999994      32.490000000000002      32.490000000000002
   323   1      3.6099999999999994      34.295000000000002      34.295000000000002
   324   1      5.4149999999999991      32.490000000000002      34.295000000000002
   325   1      5.4149999999999991      34.295000000000002      32.490000000000002
   326   1      3.6099999999999994      32.490000000000002      36.100000000000001
   327   1      3.6099999999999994      34.295000000000002      37.905000000000001
   328   1      5.4149999999999991      32.490000000000002      37.905000000000001
   329   1      5.4149999999999991      34.295000000000002      36.100000000000001
   330   1      3.6099999999999994      32.490000000000002      39.710000000000001
   331   1      3.6099999999999994      34.295000000000002      41.514999999999993
   332   1      5.4149999999999991      32.490000000000002      41.514999999999993
   333   1      5.4149999999999991      34.295000000000002      39.710000000000001
   334   1      3.6099999999999994      32.490000000000002      43.319999999999993
   335   1      3.6099999999999994      34.295000000000002      45.124999999999993
   336   1      5.4149999999999991      32.490000000000002      45.124999999999993
   337   1      5.4149999999999991      34.295000000000002      43.319999999999993
   338   1      3.6099999999999994      32.490000000000002      46.929999999999993
   339   1      3.6099999999999994      34.295000000000002      48.734999999999992
   340   1      5.4149999999999991      32.490000000000002      48.734999999999992
   341   1      5.4149999999999991      34.295000000000002      46.929999999999993
   342   1      3.6099999999999994      32.490000000000002      50.539999999999999
   343   1      3.6099999999999994      34.295000000000002      52.344999999999999
   344   1      5.4149999999999991      32.490000000000002      52.344999999999999
   345   1      5.4149999999999991      34.295000000000002      50.539999999999999
   346   1      3.6099999999999994      32.490000000000002      54.149999999999999
   347   1      3.6099999999999994      34.295000000000002      55.954999999999998
   348   1      5.4149999999999991      32.490000000000002      55.954999999999998
   349   1      5.4149999999999991      34.295000000000002      54.149999999999999
   350   1      3.6099999999999994      32.490000000000002      57.759999999999998
   351   1      5.4149999999999991      32.490000000000002      59.564999999999998
   352   1      5.4149999999999991      34.295000000000002      57.759999999999998
   353   1      5.4149999999999991      32.490000000000002      63.175000000000004
   354   1      5.4149999999999991      34.295000000000002      61.369999999999997
   355   1      5.4149999999999991      34.295000000000002      64.980000000000004
   356   1      5.4149999999999991      36.100000000000001      16.245000000000001
   357   1      5.4149999999999991      37.905000000000001                   14.44
   358   1      5.4149999999999991      36.100000000000001                  19.855