model_files/PdNi/PdNi_30000/PdNi_432/PdNi_432_fcc_29911_temp.data (written by ASE) 

29911 	 atoms 
2  atom types
0.0                     113  xlo xhi
0.0                     113  ylo yhi
0.0                     113  zlo zhi


Atoms 

     1   1      1.8625000000000045      54.012499999999996      55.875000000000007
     2   1      1.8625000000000045      55.875000000000007      54.012499999999996
     3   1  7.1054273576010019e-15      55.875000000000007      55.875000000000007
     4   1      1.8625000000000045      55.875000000000007      57.737500000000004
     5   1      1.8625000000000045      57.737500000000004      55.875000000000007
     6   1      5.5875000000000057      46.562500000000007      55.875000000000007
     7   1       3.725000000000009      50.287500000000001      54.012499999999996
     8   1      5.5875000000000057      48.425000000000004      54.012499999999996
     9   1      5.5875000000000057      50.287500000000001      52.149999999999999
    10   1       3.725000000000009      50.287500000000001      57.737500000000004
    11   1      5.5875000000000057      48.425000000000004      57.737500000000004
    12   1      5.5875000000000057      50.287500000000001      55.875000000000007
    13   1      5.5875000000000057      50.287500000000001      59.600000000000001
    14   1       3.725000000000009      54.012499999999996      50.287500000000001
    15   1      5.5875000000000057      52.149999999999999      50.287500000000001
    16   1      5.5875000000000057      54.012499999999996      48.425000000000004
    17   1       3.725000000000009      52.149999999999999      52.149999999999999
    18   1       3.725000000000009      54.012499999999996      54.012499999999996
    19   1      5.5875000000000057      52.149999999999999      54.012499999999996
    20   1      5.5875000000000057      54.012499999999996      52.149999999999999
    21   1       3.725000000000009      52.149999999999999      55.875000000000007
    22   1       3.725000000000009      54.012499999999996      57.737500000000004
    23   1      5.5875000000000057      52.149999999999999      57.737500000000004
    24   1      5.5875000000000057      54.012499999999996      55.875000000000007
    25   1       3.725000000000009      52.149999999999999      59.600000000000001
    26   1       3.725000000000009      54.012499999999996      61.462499999999999
    27   1      5.5875000000000057      52.149999999999999      61.462499999999999
    28   1      5.5875000000000057      54.012499999999996      59.600000000000001
    29   1      5.5875000000000057      54.012499999999996      63.324999999999996
    30   1      5.5875000000000057      55.875000000000007      46.562500000000007
    31   1       3.725000000000009      57.737500000000004      50.287500000000001
    32   1      5.5875000000000057      55.875000000000007      50.287500000000001
    33   1      5.5875000000000057      57.737500000000004      48.425000000000004
    34   1       3.725000000000009      55.875000000000007      52.149999999999999
    35   1       3.725000000000009      57.737500000000004      54.012499999999996
    36   1      5.5875000000000057      55.875000000000007      54.012499999999996
    37   1      5.5875000000000057      57.737500000000004      52.149999999999999
    38   1       3.725000000000009      55.875000000000007      55.875000000000007
    39   1       3.725000000000009      57.737500000000004      57.737500000000004
    40   1      5.5875000000000057      55.875000000000007      57.737500000000004
    41   1      5.5875000000000057      57.737500000000004      55.875000000000007
    42   1       3.725000000000009      55.875000000000007      59.600000000000001
    43   1       3.725000000000009      57.737500000000004      61.462499999999999
    44   1      5.5875000000000057      55.875000000000007      61.462499999999999
    45   1      5.5875000000000057      57.737500000000004      59.600000000000001
    46   1      5.5875000000000057      55.875000000000007                 65.1875
    47   1      5.5875000000000057      57.737500000000004      63.324999999999996
    48   1      5.5875000000000057      59.600000000000001      50.287500000000001
    49   1       3.725000000000009      59.600000000000001      52.149999999999999
    50   1       3.725000000000009      61.462499999999999      54.012499999999996
    51   1      5.5875000000000057      59.600000000000001      54.012499999999996
    52   1      5.5875000000000057      61.462499999999999      52.149999999999999
    53   1       3.725000000000009      59.600000000000001      55.875000000000007
    54   1       3.725000000000009      61.462499999999999      57.737500000000004
    55   1      5.5875000000000057      59.600000000000001      57.737500000000004
    56   1      5.5875000000000057      61.462499999999999      55.875000000000007
    57   1       3.725000000000009      59.600000000000001      59.600000000000001
    58   1      5.5875000000000057      59.600000000000001      61.462499999999999
    59   1      5.5875000000000057      61.462499999999999      59.600000000000001
    60   1      5.5875000000000057      63.324999999999996      54.012499999999996
    61   1      5.5875000000000057      63.324999999999996      57.737500000000004
    62   1      5.5875000000000057                 65.1875      55.875000000000007
    63   1      9.3125000000000071      42.837500000000006      55.875000000000007
    64   1      9.3125000000000071      46.562500000000007      48.425000000000004
    65   1      7.4500000000000099      46.562500000000007      54.012499999999996
    66   1      9.3125000000000071       44.70000000000001      54.012499999999996
    67   1      9.3125000000000071      46.562500000000007      52.149999999999999
    68   1      7.4500000000000099       44.70000000000001      55.875000000000007
    69   1      7.4500000000000099      46.562500000000007      57.737500000000004
    70   1      9.3125000000000071       44.70000000000001      57.737500000000004
    71   1      9.3125000000000071      46.562500000000007      55.875000000000007
    72   1      9.3125000000000071      46.562500000000007      59.600000000000001
    73   1      9.3125000000000071      46.562500000000007      63.324999999999996
    74   1      9.3125000000000071      48.425000000000004      46.562500000000007
    75   1      7.4500000000000099      50.287500000000001      50.287500000000001
    76   1      9.3125000000000071      48.425000000000004      50.287500000000001
    77   1      9.3125000000000071      50.287500000000001      48.425000000000004
    78   1      7.4500000000000099      48.425000000000004      52.149999999999999
    79   1      7.4500000000000099      50.287500000000001      54.012499999999996
    80   1      9.3125000000000071      48.425000000000004      54.012499999999996
    81   1      9.3125000000000071      50.287500000000001      52.149999999999999
    82   1      7.4500000000000099      48.425000000000004      55.875000000000007
    83   1      7.4500000000000099      50.287500000000001      57.737500000000004
    84   1      9.3125000000000071      48.425000000000004      57.737500000000004
    85   1      9.3125000000000071      50.287500000000001      55.875000000000007
    86   1      7.4500000000000099      48.425000000000004      59.600000000000001
    87   1      7.4500000000000099      50.287500000000001      61.462499999999999
    88   1      9.3125000000000071      48.425000000000004      61.462499999999999
    89   1      9.3125000000000071      50.287500000000001      59.600000000000001
    90   1      9.3125000000000071      48.425000000000004                 65.1875
    91   1      9.3125000000000071      50.287500000000001      63.324999999999996
    92   1      7.4500000000000099      54.012499999999996      46.562500000000007
    93   1      9.3125000000000071      52.149999999999999      46.562500000000007
    94   1      9.3125000000000071      54.012499999999996       44.70000000000001
    95   1      7.4500000000000099      52.149999999999999      48.425000000000004
    96   1      7.4500000000000099      54.012499999999996      50.287500000000001
    97   1      9.3125000000000071      52.149999999999999      50.287500000000001
    98   1      9.3125000000000071      54.012499999999996      48.425000000000004
    99   1      7.4500000000000099      52.149999999999999      52.149999999999999
   100   1      7.4500000000000099      54.012499999999996      54.012499999999996
   101   1      9.3125000000000071      52.149999999999999      54.012499999999996
   102   1      9.3125000000000071      54.012499999999996      52.149999999999999
   103   1      7.4500000000000099      52.149999999999999      55.875000000000007
   104   1      7.4500000000000099      54.012499999999996      57.737500000000004
   105   1      9.3125000000000071      52.149999999999999      57.737500000000004
   106   1      9.3125000000000071      54.012499999999996      55.875000000000007
   107   1      7.4500000000000099      52.149999999999999      59.600000000000001
   108   1      7.4500000000000099      54.012499999999996      61.462499999999999
   109   1      9.3125000000000071      52.149999999999999      61.462499999999999
   110   1      9.3125000000000071      54.012499999999996      59.600000000000001
   111   1      7.4500000000000099      52.149999999999999      63.324999999999996
   112   1      7.4500000000000099      54.012499999999996                 65.1875
   113   1      9.3125000000000071      52.149999999999999                 65.1875
   114   1      9.3125000000000071      54.012499999999996      63.324999999999996
   115   1      9.3125000000000071      54.012499999999996      67.050000000000011
   116   1      9.3125000000000071      55.875000000000007      42.837500000000006
   117   1      7.4500000000000099      55.875000000000007       44.70000000000001
   118   1      7.4500000000000099      57.737500000000004      46.562500000000007
   119   1      9.3125000000000071      55.875000000000007      46.562500000000007
   120   1      9.3125000000000071      57.737500000000004       44.70000000000001
   121   1      7.4500000000000099      55.875000000000007      48.425000000000004
   122   1      7.4500000000000099      57.737500000000004      50.287500000000001
   123   1      9.3125000000000071      55.875000000000007      50.287500000000001
   124   1      9.3125000000000071      57.737500000000004      48.425000000000004
   125   1      7.4500000000000099      55.875000000000007      52.149999999999999
   126   1      7.4500000000000099      57.737500000000004      54.012499999999996
   127   1      9.3125000000000071      55.875000000000007      54.012499999999996
   128   1      9.3125000000000071      57.737500000000004      52.149999999999999
   129   1      7.4500000000000099      55.875000000000007      55.875000000000007
   130   1      7.4500000000000099      57.737500000000004      57.737500000000004
   131   1      9.3125000000000071      55.875000000000007      57.737500000000004
   132   1      9.3125000000000071      57.737500000000004      55.875000000000007
   133   1      7.4500000000000099      55.875000000000007      59.600000000000001
   134   1      7.4500000000000099      57.737500000000004      61.462499999999999
   135   1      9.3125000000000071      55.875000000000007      61.462499999999999
   136   1      9.3125000000000071      57.737500000000004      59.600000000000001
   137   1      7.4500000000000099      55.875000000000007      63.324999999999996
   138   1      7.4500000000000099      57.737500000000004                 65.1875
   139   1      9.3125000000000071      55.875000000000007                 65.1875
   140   1      9.3125000000000071      57.737500000000004      63.324999999999996
   141   1      7.4500000000000099      55.875000000000007      67.050000000000011
   142   1      9.3125000000000071      55.875000000000007      68.912500000000009
   143   1      9.3125000000000071      57.737500000000004      67.050000000000011
   144   1      9.3125000000000071      59.600000000000001      46.562500000000007
   145   1      7.4500000000000099      59.600000000000001      48.425000000000004
   146   1      7.4500000000000099      61.462499999999999      50.287500000000001
   147   1      9.3125000000000071      59.600000000000001      50.287500000000001
   148   1      9.3125000000000071      61.462499999999999      48.425000000000004
   149   1      7.4500000000000099      59.600000000000001      52.149999999999999
   150   1      7.4500000000000099      61.462499999999999      54.012499999999996
   151   1      9.3125000000000071      59.600000000000001      54.012499999999996
   152   1      9.3125000000000071      61.462499999999999      52.149999999999999
   153   1      7.4500000000000099      59.600000000000001      55.875000000000007
   154   1      7.4500000000000099      61.462499999999999      57.737500000000004
   155   1      9.3125000000000071      59.600000000000001      57.737500000000004
   156   1      9.3125000000000071      61.462499999999999      55.875000000000007
   157   1      7.4500000000000099      59.600000000000001      59.600000000000001
   158   1      7.4500000000000099      61.462499999999999      61.462499999999999
   159   1      9.3125000000000071      59.600000000000001      61.462499999999999
   160   1      9.3125000000000071      61.462499999999999      59.600000000000001
   161   1      7.4500000000000099      59.600000000000001      63.324999999999996
   162   1      9.3125000000000071      59.600000000000001                 65.1875
   163   1      9.3125000000000071      61.462499999999999      63.324999999999996
   164   1      9.3125000000000071      63.324999999999996      46.562500000000007
   165   1      9.3125000000000071      63.324999999999996      50.287500000000001
   166   1      9.3125000000000071                 65.1875      48.425000000000004
   167   1      7.4500000000000099      63.324999999999996      52.149999999999999
   168   1      7.4500000000000099                 65.1875      54.012499999999996
   169   1      9.3125000000000071      63.324999999999996      54.012499999999996
   170   1      9.3125000000000071                 65.1875      52.149999999999999
   171   1      7.4500000000000099      63.324999999999996      55.875000000000007
   172   1      7.4500000000000099                 65.1875      57.737500000000004
   173   1      9.3125000000000071      63.324999999999996      57.737500000000004
   174   1      9.3125000000000071                 65.1875      55.875000000000007
   175   1      7.4500000000000099      63.324999999999996      59.600000000000001
   176   1      9.3125000000000071      63.324999999999996      61.462499999999999
   177   1      9.3125000000000071                 65.1875      59.600000000000001
   178   1      9.3125000000000071      63.324999999999996                 65.1875
   179   1      9.3125000000000071                 65.1875      63.324999999999996
   180   1      9.3125000000000071      67.050000000000011      54.012499999999996
   181   1      7.4500000000000099      67.050000000000011      55.875000000000007
   182   1      9.3125000000000071      67.050000000000011      57.737500000000004
   183   1      9.3125000000000071      68.912500000000009      55.875000000000007
   184   1                 13.0375      39.112500000000004      52.149999999999999
   185   1                 13.0375      39.112500000000004      55.875000000000007
   186   1                 13.0375      39.112500000000004      59.600000000000001
   187   1      11.175000000000004      42.837500000000006      50.287500000000001
   188   1                 13.0375      40.975000000000009      50.287500000000001
   189   1                 13.0375      42.837500000000006      48.425000000000004
   190   1      11.175000000000004      42.837500000000006      54.012499999999996
   191   1                 13.0375      40.975000000000009      54.012499999999996
   192   1                 13.0375      42.837500000000006      52.149999999999999
   193   1      11.175000000000004      40.975000000000009      55.875000000000007
   194   1      11.175000000000004      42.837500000000006      57.737500000000004
   195   1                 13.0375      40.975000000000009      57.737500000000004
   196   1                 13.0375      42.837500000000006      55.875000000000007
   197   1      11.175000000000004      42.837500000000006      61.462499999999999
   198   1                 13.0375      40.975000000000009      61.462499999999999
   199   1                 13.0375      42.837500000000006      59.600000000000001
   200   1                 13.0375      42.837500000000006      63.324999999999996
   201   1      11.175000000000004      46.562500000000007      46.562500000000007
   202   1                 13.0375       44.70000000000001      46.562500000000007
   203   1                 13.0375      46.562500000000007       44.70000000000001
   204   1      11.175000000000004       44.70000000000001      48.425000000000004
   205   1      11.175000000000004      46.562500000000007      50.287500000000001
   206   1                 13.0375       44.70000000000001      50.287500000000001
   207   1                 13.0375      46.562500000000007      48.425000000000004
   208   1      11.175000000000004       44.70000000000001      52.149999999999999
   209   1      11.175000000000004      46.562500000000007      54.012499999999996
   210   1                 13.0375       44.70000000000001      54.012499999999996
   211   1                 13.0375      46.562500000000007      52.149999999999999
   212   1      11.175000000000004       44.70000000000001      55.875000000000007
   213   1      11.175000000000004      46.562500000000007      57.737500000000004
   214   1                 13.0375       44.70000000000001      57.737500000000004
   215   1                 13.0375      46.562500000000007      55.875000000000007
   216   1      11.175000000000004       44.70000000000001      59.600000000000001
   217   1      11.175000000000004      46.562500000000007      61.462499999999999
   218   1                 13.0375       44.70000000000001      61.462499999999999
   219   1                 13.0375      46.562500000000007      59.600000000000001
   220   1      11.175000000000004       44.70000000000001      63.324999999999996
   221   1      11.175000000000004      46.562500000000007                 65.1875
   222   1                 13.0375       44.70000000000001                 65.1875
   223   1                 13.0375      46.562500000000007      63.324999999999996
   224   1                 13.0375      46.562500000000007      67.050000000000011
   225   1      11.175000000000004      50.287500000000001      42.837500000000006
   226   1                 13.0375      48.425000000000004      42.837500000000006
   227   1                 13.0375      50.287500000000001      40.975000000000009
   228   1      11.175000000000004      48.425000000000004       44.70000000000001
   229   1      11.175000000000004      50.287500000000001      46.562500000000007
   230   1                 13.0375      48.425000000000004      46.562500000000007
   231   1                 13.0375      50.287500000000001       44.70000000000001
   232   1      11.175000000000004      48.425000000000004      48.425000000000004
   233   1      11.175000000000004      50.287500000000001      50.287500000000001
   234   1                 13.0375      48.425000000000004      50.287500000000001
   235   1                 13.0375      50.287500000000001      48.425000000000004
   236   1      11.175000000000004      48.425000000000004      52.149999999999999
   237   1      11.175000000000004      50.287500000000001      54.012499999999996
   238   1                 13.0375      48.425000000000004      54.012499999999996
   239   1                 13.0375      50.287500000000001      52.149999999999999
   240   1      11.175000000000004      48.425000000000004      55.875000000000007
   241   1      11.175000000000004      50.287500000000001      57.737500000000004
   242   1                 13.0375      48.425000000000004      57.737500000000004
   243   1                 13.0375      50.287500000000001      55.875000000000007
   244   1      11.175000000000004      48.425000000000004      59.600000000000001
   245   1      11.175000000000004      50.287500000000001      61.462499999999999
   246   1                 13.0375      48.425000000000004      61.462499999999999
   247   1                 13.0375      50.287500000000001      59.600000000000001
   248   1      11.175000000000004      48.425000000000004      63.324999999999996
   249   1      11.175000000000004      50.287500000000001                 65.1875
   250   1                 13.0375      48.425000000000004                 65.1875
   251   1                 13.0375      50.287500000000001      63.324999999999996
   252   1      11.175000000000004      48.425000000000004      67.050000000000011
   253   1      11.175000000000004      50.287500000000001      68.912500000000009
   254   1                 13.0375      48.425000000000004      68.912500000000009
   255   1                 13.0375      50.287500000000001      67.050000000000011
   256   1                 13.0375      50.287500000000001      70.775000000000006
   257   1                 13.0375      52.149999999999999      39.112500000000004
   258   1      11.175000000000004      54.012499999999996      42.837500000000006
   259   1                 13.0375      52.149999999999999      42.837500000000006
   260   1                 13.0375      54.012499999999996      40.975000000000009
   261   1      11.175000000000004      52.149999999999999       44.70000000000001
   262   1      11.175000000000004      54.012499999999996      46.562500000000007
   263   1                 13.0375      52.149999999999999      46.562500000000007
   264   1                 13.0375      54.012499999999996       44.70000000000001
   265   1      11.175000000000004      52.149999999999999      48.425000000000004
   266   1      11.175000000000004      54.012499999999996      50.287500000000001
   267   1                 13.0375      52.149999999999999      50.287500000000001
   268   1                 13.0375      54.012499999999996      48.425000000000004
   269   1      11.175000000000004      52.149999999999999      52.149999999999999
   270   1      11.175000000000004      54.012499999999996      54.012499999999996
   271   1                 13.0375      52.149999999999999      54.012499999999996
   272   1                 13.0375      54.012499999999996      52.149999999999999
   273   1      11.175000000000004      52.149999999999999      55.875000000000007
   274   1      11.175000000000004      54.012499999999996      57.737500000000004
   275   1                 13.0375      52.149999999999999      57.737500000000004
   276   1                 13.0375      54.012499999999996      55.875000000000007
   277   1      11.175000000000004      52.149999999999999      59.600000000000001
   278   1      11.175000000000004      54.012499999999996      61.462499999999999
   279   1                 13.0375      52.149999999999999      61.462499999999999
   280   1                 13.0375      54.012499999999996      59.600000000000001
   281   1      11.175000000000004      52.149999999999999      63.324999999999996
   282   1      11.175000000000004      54.012499999999996                 65.1875
   283   1                 13.0375      52.149999999999999                 65.1875
   284   1                 13.0375      54.012499999999996      63.324999999999996
   285   1      11.175000000000004      52.149999999999999      67.050000000000011
   286   1      11.175000000000004      54.012499999999996      68.912500000000009
   287   1                 13.0375      52.149999999999999      68.912500000000009
   288   1                 13.0375      54.012499999999996      67.050000000000011
   289   1                 13.0375      52.149999999999999      72.637500000000003
   290   1                 13.0375      54.012499999999996      70.775000000000006
   291   1                 13.0375      55.875000000000007      39.112500000000004
   292   1      11.175000000000004      55.875000000000007      40.975000000000009
   293   1      11.175000000000004      57.737500000000004      42.837500000000006
   294   1                 13.0375      55.875000000000007      42.837500000000006
   295   1                 13.0375      57.737500000000004      40.975000000000009
   296   1      11.175000000000004      55.875000000000007       44.70000000000001
   297   1      11.175000000000004      57.737500000000004      46.562500000000007
   298   1                 13.0375      55.875000000000007      46.562500000000007
   299   1                 13.0375      57.737500000000004       44.70000000000001
   300   1      11.175000000000004      55.875000000000007      48.425000000000004
   301   1      11.175000000000004      57.737500000000004      50.287500000000001
   302   1                 13.0375      55.875000000000007      50.287500000000001
   303   1                 13.0375      57.737500000000004      48.425000000000004
   304   1      11.175000000000004      55.875000000000007      52.149999999999999
   305   1      11.175000000000004      57.737500000000004      54.012499999999996
   306   1                 13.0375      55.875000000000007      54.012499999999996
   307   1                 13.0375      57.737500000000004      52.149999999999999
   308   1      11.175000000000004      55.875000000000007      55.875000000000007
   309   1      11.175000000000004      57.737500000000004      57.737500000000004
   310   1                 13.0375      55.875000000000007      57.737500000000004
   311   1                 13.0375      57.737500000000004      55.875000000000007
   312   1      11.175000000000004      55.875000000000007      59.600000000000001
   313   1      11.175000000000004      57.737500000000004      61.462499999999999
   314   1                 13.0375      55.875000000000007      61.462499999999999
   315   1                 13.0375      57.737500000000004      59.600000000000001
   316   1      11.175000000000004      55.875000000000007      63.324999999999996
   317   1      11.175000000000004      57.737500000000004                 65.1875
   318   1                 13.0375      55.875000000000007                 65.1875
   319   1                 13.0375      57.737500000000004      63.324999999999996
   320   1      11.175000000000004      55.875000000000007      67.050000000000011
   321   1      11.175000000000004      57.737500000000004      68.912500000000009
   322   1                 13.0375      55.875000000000007      68.912500000000009
   323   1                 13.0375      57.737500000000004      67.050000000000011
   324   1      11.175000000000004      55.875000000000007      70.775000000000006
   325   1                 13.0375      55.875000000000007      72.637500000000003
   326   1                 13.0375      57.737500000000004      70.775000000000006
   327   1                 13.0375      59.600000000000001      39.112500000000004
   328   1      11.175000000000004      61.462499999999999      42.837500000000006
   329   1                 13.0375      59.600000000000001      42.837500000000006
   330   1                 13.0375      61.462499999999999      40.975000000000009
   331   1      11.175000000000004      59.600000000000001       44.70000000000001
   332   1      11.175000000000004      61.462499999999999      46.562500000000007
   333   1                 13.0375      59.600000000000001      46.562500000000007
   334   1                 13.0375      61.462499999999999       44.70000000000001
   335   1      11.175000000000004      59.600000000000001      48.425000000000004
   336   1      11.175000000000004      61.462499999999999      50.287500000000001
   337   1                 13.0375      59.600000000000001      50.287500000000001
   338   1                 13.0375      61.462499999999999      48.425000000000004
   339   1      11.175000000000004      59.600000000000001      52.149999999999999
   340   1      11.175000000000004      61.462499999999999      54.012499999999996
   341   1                 13.0375      59.600000000000001      54.012499999999996
   342   1                 13.0375      61.462499999999999      52.149999999999999
   343   1      11.175000000000004      59.600000000000001      55.875000000000007
   344   1      11.175000000000004      61.462499999999999      57.737500000000004
   345   1                 13.0375      59.600000000000001      57.737500000000004
   346   1                 13.0375      61.462499999999999      55.875000000000007
   347   1      11.175000000000004      59.600000000000001      59.600000000000001
   348   1      11.175000000000004      61.462499999999999      61.462499999999999
   349   1                 13.0375      59.600000000000001      61.462499999999999
   350   1                 13.0375      61.462499999999999      59.600000000000001
   351   1      11.175000000000004      59.600000000000001      63.324999999999996
   352   1      11.175000000000004      61.462499999999999                 65.1875
   353   1                 13.0375      59.600000000000001                 65.1875
   354   1                 13.0375      61.462499999999999      63.324999999999996
   355   1      11.175000000000004      59.600000000000001      67.050000000000011
   356   1      11.175000000000004      61.462499999999999      68.912500000000009
   357   1                 13.0375      59.600000000000001      68.912500000000009
   358   1                 13.0375      61.462499999999999      67.050000000000011