model_files/PdCo/PdCo_30000/PdCo_532/PdCo_532_fcc_30213_temp.data (written by ASE) 

30213 	 atoms 
2  atom types
0.0                     104  xlo xhi
0.0                     104  ylo yhi
0.0                     104  zlo zhi


Atoms 

     1   1      1.8750000000000002                  46.875                    52.5
     2   1      1.8750000000000002                   48.75      50.625000000000007
     3   1      1.8750000000000002      50.625000000000007                   48.75
     4   1      1.8750000000000002                   48.75                  54.375
     5   1      1.8750000000000002      50.625000000000007                    52.5
     6   1      1.8750000000000002      50.625000000000007      56.250000000000007
     7   1      1.8750000000000002                    52.5                  46.875
     8   1      1.8750000000000002                    52.5      50.625000000000007
     9   1      1.8750000000000002                  54.375                   48.75
    10   1                       0                    52.5                    52.5
    11   1      1.8750000000000002                    52.5                  54.375
    12   1      1.8750000000000002                  54.375                    52.5
    13   1      1.8750000000000002                    52.5      58.125000000000007
    14   1      1.8750000000000002                  54.375      56.250000000000007
    15   1      1.8750000000000002      56.250000000000007      50.625000000000007
    16   1      1.8750000000000002      56.250000000000007                  54.375
    17   1      1.8750000000000002      58.125000000000007                    52.5
    18   1                   5.625                  43.125                   48.75
    19   1                   5.625                  43.125                    52.5
    20   1                   5.625                  43.125      56.250000000000007
    21   1                   5.625                      45                  46.875
    22   1                   5.625                  46.875                      45
    23   1      3.7500000000000004                  46.875      50.625000000000007
    24   1                   5.625                      45      50.625000000000007
    25   1                   5.625                  46.875                   48.75
    26   1      3.7500000000000004                      45                    52.5
    27   1      3.7500000000000004                  46.875                  54.375
    28   1                   5.625                      45                  54.375
    29   1                   5.625                  46.875                    52.5
    30   1                   5.625                      45      58.125000000000007
    31   1                   5.625                  46.875      56.250000000000007
    32   1                   5.625                  46.875      60.000000000000007
    33   1                   5.625                   48.75                  43.125
    34   1      3.7500000000000004      50.625000000000007                  46.875
    35   1                   5.625                   48.75                  46.875
    36   1                   5.625      50.625000000000007                      45
    37   1      3.7500000000000004                   48.75                   48.75
    38   1      3.7500000000000004      50.625000000000007      50.625000000000007
    39   1                   5.625                   48.75      50.625000000000007
    40   1                   5.625      50.625000000000007                   48.75
    41   1      3.7500000000000004                   48.75                    52.5
    42   1      3.7500000000000004      50.625000000000007                  54.375
    43   1                   5.625                   48.75                  54.375
    44   1                   5.625      50.625000000000007                    52.5
    45   1      3.7500000000000004                   48.75      56.250000000000007
    46   1      3.7500000000000004      50.625000000000007      58.125000000000007
    47   1                   5.625                   48.75      58.125000000000007
    48   1                   5.625      50.625000000000007      56.250000000000007
    49   1                   5.625                   48.75      61.875000000000007
    50   1                   5.625      50.625000000000007      60.000000000000007
    51   1                   5.625                    52.5                  43.125
    52   1      3.7500000000000004                    52.5                      45
    53   1      3.7500000000000004                  54.375                  46.875
    54   1                   5.625                    52.5                  46.875
    55   1                   5.625                  54.375                      45
    56   1      3.7500000000000004                    52.5                   48.75
    57   1      3.7500000000000004                  54.375      50.625000000000007
    58   1                   5.625                    52.5      50.625000000000007
    59   1                   5.625                  54.375                   48.75
    60   1      3.7500000000000004                    52.5                    52.5
    61   1      3.7500000000000004                  54.375                  54.375
    62   1                   5.625                    52.5                  54.375
    63   1                   5.625                  54.375                    52.5
    64   1      3.7500000000000004                    52.5      56.250000000000007
    65   1      3.7500000000000004                  54.375      58.125000000000007
    66   1                   5.625                    52.5      58.125000000000007
    67   1                   5.625                  54.375      56.250000000000007
    68   1      3.7500000000000004                    52.5      60.000000000000007
    69   1                   5.625                    52.5      61.875000000000007
    70   1                   5.625                  54.375      60.000000000000007
    71   1                   5.625      56.250000000000007                  43.125
    72   1                   5.625      56.250000000000007                  46.875
    73   1                   5.625      58.125000000000007                      45
    74   1      3.7500000000000004      56.250000000000007                   48.75
    75   1      3.7500000000000004      58.125000000000007      50.625000000000007
    76   1                   5.625      56.250000000000007      50.625000000000007
    77   1                   5.625      58.125000000000007                   48.75
    78   1      3.7500000000000004      56.250000000000007                    52.5
    79   1      3.7500000000000004      58.125000000000007                  54.375
    80   1                   5.625      56.250000000000007                  54.375
    81   1                   5.625      58.125000000000007                    52.5
    82   1      3.7500000000000004      56.250000000000007      56.250000000000007
    83   1                   5.625      56.250000000000007      58.125000000000007
    84   1                   5.625      58.125000000000007      56.250000000000007
    85   1                   5.625      56.250000000000007      61.875000000000007
    86   1                   5.625      58.125000000000007      60.000000000000007
    87   1                   5.625      60.000000000000007                  46.875
    88   1                   5.625      60.000000000000007      50.625000000000007
    89   1                   5.625      61.875000000000007                   48.75
    90   1      3.7500000000000004      60.000000000000007                    52.5
    91   1                   5.625      60.000000000000007                  54.375
    92   1                   5.625      61.875000000000007                    52.5
    93   1                   5.625      60.000000000000007      58.125000000000007
    94   1                   5.625      61.875000000000007      56.250000000000007
    95   1                   9.375                  35.625                    52.5
    96   1                   9.375      39.375000000000007                      45
    97   1      7.5000000000000009      39.375000000000007      50.625000000000007
    98   1                   9.375                    37.5      50.625000000000007
    99   1                   9.375      39.375000000000007                   48.75
   100   1      7.5000000000000009                    37.5                    52.5
   101   1      7.5000000000000009      39.375000000000007                  54.375
   102   1                   9.375                    37.5                  54.375
   103   1                   9.375      39.375000000000007                    52.5
   104   1                   9.375      39.375000000000007      56.250000000000007
   105   1                   9.375      39.375000000000007      60.000000000000007
   106   1                   9.375                   41.25                  43.125
   107   1                   9.375                  43.125                   41.25
   108   1      7.5000000000000009                  43.125                  46.875
   109   1                   9.375                   41.25                  46.875
   110   1                   9.375                  43.125                      45
   111   1      7.5000000000000009                   41.25                   48.75
   112   1      7.5000000000000009                  43.125      50.625000000000007
   113   1                   9.375                   41.25      50.625000000000007
   114   1                   9.375                  43.125                   48.75
   115   1      7.5000000000000009                   41.25                    52.5
   116   1      7.5000000000000009                  43.125                  54.375
   117   1                   9.375                   41.25                  54.375
   118   1                   9.375                  43.125                    52.5
   119   1      7.5000000000000009                   41.25      56.250000000000007
   120   1      7.5000000000000009                  43.125      58.125000000000007
   121   1                   9.375                   41.25      58.125000000000007
   122   1                   9.375                  43.125      56.250000000000007
   123   1                   9.375                   41.25      61.875000000000007
   124   1                   9.375                  43.125      60.000000000000007
   125   1                   9.375                  43.125      63.750000000000007
   126   1                   9.375                      45      39.375000000000007
   127   1      7.5000000000000009                  46.875                  43.125
   128   1                   9.375                      45                  43.125
   129   1                   9.375                  46.875                   41.25
   130   1      7.5000000000000009                      45                      45
   131   1      7.5000000000000009                  46.875                  46.875
   132   1                   9.375                      45                  46.875
   133   1                   9.375                  46.875                      45
   134   1      7.5000000000000009                      45                   48.75
   135   1      7.5000000000000009                  46.875      50.625000000000007
   136   1                   9.375                      45      50.625000000000007
   137   1                   9.375                  46.875                   48.75
   138   1      7.5000000000000009                      45                    52.5
   139   1      7.5000000000000009                  46.875                  54.375
   140   1                   9.375                      45                  54.375
   141   1                   9.375                  46.875                    52.5
   142   1      7.5000000000000009                      45      56.250000000000007
   143   1      7.5000000000000009                  46.875      58.125000000000007
   144   1                   9.375                      45      58.125000000000007
   145   1                   9.375                  46.875      56.250000000000007
   146   1      7.5000000000000009                      45      60.000000000000007
   147   1      7.5000000000000009                  46.875      61.875000000000007
   148   1                   9.375                      45      61.875000000000007
   149   1                   9.375                  46.875      60.000000000000007
   150   1                   9.375                      45                  65.625
   151   1                   9.375                  46.875      63.750000000000007
   152   1      7.5000000000000009      50.625000000000007      39.375000000000007
   153   1                   9.375                   48.75      39.375000000000007
   154   1                   9.375      50.625000000000007                    37.5
   155   1      7.5000000000000009                   48.75                   41.25
   156   1      7.5000000000000009      50.625000000000007                  43.125
   157   1                   9.375                   48.75                  43.125
   158   1                   9.375      50.625000000000007                   41.25
   159   1      7.5000000000000009                   48.75                      45
   160   1      7.5000000000000009      50.625000000000007                  46.875
   161   1                   9.375                   48.75                  46.875
   162   1                   9.375      50.625000000000007                      45
   163   1      7.5000000000000009                   48.75                   48.75
   164   1      7.5000000000000009      50.625000000000007      50.625000000000007
   165   1                   9.375                   48.75      50.625000000000007
   166   1                   9.375      50.625000000000007                   48.75
   167   1      7.5000000000000009                   48.75                    52.5
   168   1      7.5000000000000009      50.625000000000007                  54.375
   169   1                   9.375                   48.75                  54.375
   170   1                   9.375      50.625000000000007                    52.5
   171   1      7.5000000000000009                   48.75      56.250000000000007
   172   1      7.5000000000000009      50.625000000000007      58.125000000000007
   173   1                   9.375                   48.75      58.125000000000007
   174   1                   9.375      50.625000000000007      56.250000000000007
   175   1      7.5000000000000009                   48.75      60.000000000000007
   176   1      7.5000000000000009      50.625000000000007      61.875000000000007
   177   1                   9.375                   48.75      61.875000000000007
   178   1                   9.375      50.625000000000007      60.000000000000007
   179   1      7.5000000000000009                   48.75      63.750000000000007
   180   1      7.5000000000000009      50.625000000000007                  65.625
   181   1                   9.375                   48.75                  65.625
   182   1                   9.375      50.625000000000007      63.750000000000007
   183   1                   9.375      50.625000000000007                    67.5
   184   1                   9.375                    52.5                  35.625
   185   1      7.5000000000000009                    52.5                    37.5
   186   1      7.5000000000000009                  54.375      39.375000000000007
   187   1                   9.375                    52.5      39.375000000000007
   188   1                   9.375                  54.375                    37.5
   189   1      7.5000000000000009                    52.5                   41.25
   190   1      7.5000000000000009                  54.375                  43.125
   191   1                   9.375                    52.5                  43.125
   192   1                   9.375                  54.375                   41.25
   193   1      7.5000000000000009                    52.5                      45
   194   1      7.5000000000000009                  54.375                  46.875
   195   1                   9.375                    52.5                  46.875
   196   1                   9.375                  54.375                      45
   197   1      7.5000000000000009                    52.5                   48.75
   198   1      7.5000000000000009                  54.375      50.625000000000007
   199   1                   9.375                    52.5      50.625000000000007
   200   1                   9.375                  54.375                   48.75
   201   1      7.5000000000000009                    52.5                    52.5
   202   1      7.5000000000000009                  54.375                  54.375
   203   1                   9.375                    52.5                  54.375
   204   1                   9.375                  54.375                    52.5
   205   1      7.5000000000000009                    52.5      56.250000000000007
   206   1      7.5000000000000009                  54.375      58.125000000000007
   207   1                   9.375                    52.5      58.125000000000007
   208   1                   9.375                  54.375      56.250000000000007
   209   1      7.5000000000000009                    52.5      60.000000000000007
   210   1      7.5000000000000009                  54.375      61.875000000000007
   211   1                   9.375                    52.5      61.875000000000007
   212   1                   9.375                  54.375      60.000000000000007
   213   1      7.5000000000000009                    52.5      63.750000000000007
   214   1      7.5000000000000009                  54.375                  65.625
   215   1                   9.375                    52.5                  65.625
   216   1                   9.375                  54.375      63.750000000000007
   217   1      7.5000000000000009                    52.5                    67.5
   218   1                   9.375                    52.5                  69.375
   219   1                   9.375                  54.375                    67.5
   220   1                   9.375      56.250000000000007      39.375000000000007
   221   1      7.5000000000000009      56.250000000000007                   41.25
   222   1      7.5000000000000009      58.125000000000007                  43.125
   223   1                   9.375      56.250000000000007                  43.125
   224   1                   9.375      58.125000000000007                   41.25
   225   1      7.5000000000000009      56.250000000000007                      45
   226   1      7.5000000000000009      58.125000000000007                  46.875
   227   1                   9.375      56.250000000000007                  46.875
   228   1                   9.375      58.125000000000007                      45
   229   1      7.5000000000000009      56.250000000000007                   48.75
   230   1      7.5000000000000009      58.125000000000007      50.625000000000007
   231   1                   9.375      56.250000000000007      50.625000000000007
   232   1                   9.375      58.125000000000007                   48.75
   233   1      7.5000000000000009      56.250000000000007                    52.5
   234   1      7.5000000000000009      58.125000000000007                  54.375
   235   1                   9.375      56.250000000000007                  54.375
   236   1                   9.375      58.125000000000007                    52.5
   237   1      7.5000000000000009      56.250000000000007      56.250000000000007
   238   1      7.5000000000000009      58.125000000000007      58.125000000000007
   239   1                   9.375      56.250000000000007      58.125000000000007
   240   1                   9.375      58.125000000000007      56.250000000000007
   241   1      7.5000000000000009      56.250000000000007      60.000000000000007
   242   1      7.5000000000000009      58.125000000000007      61.875000000000007
   243   1                   9.375      56.250000000000007      61.875000000000007
   244   1                   9.375      58.125000000000007      60.000000000000007
   245   1      7.5000000000000009      56.250000000000007      63.750000000000007
   246   1                   9.375      56.250000000000007                  65.625
   247   1                   9.375      58.125000000000007      63.750000000000007
   248   1                   9.375      60.000000000000007      39.375000000000007
   249   1                   9.375      60.000000000000007                  43.125
   250   1                   9.375      61.875000000000007                   41.25
   251   1      7.5000000000000009      60.000000000000007                      45
   252   1      7.5000000000000009      61.875000000000007                  46.875
   253   1                   9.375      60.000000000000007                  46.875
   254   1                   9.375      61.875000000000007                      45
   255   1      7.5000000000000009      60.000000000000007                   48.75
   256   1      7.5000000000000009      61.875000000000007      50.625000000000007
   257   1                   9.375      60.000000000000007      50.625000000000007
   258   1                   9.375      61.875000000000007                   48.75
   259   1      7.5000000000000009      60.000000000000007                    52.5
   260   1      7.5000000000000009      61.875000000000007                  54.375
   261   1                   9.375      60.000000000000007                  54.375
   262   1                   9.375      61.875000000000007                    52.5
   263   1      7.5000000000000009      60.000000000000007      56.250000000000007
   264   1      7.5000000000000009      61.875000000000007      58.125000000000007
   265   1                   9.375      60.000000000000007      58.125000000000007
   266   1                   9.375      61.875000000000007      56.250000000000007
   267   1      7.5000000000000009      60.000000000000007      60.000000000000007
   268   1                   9.375      60.000000000000007      61.875000000000007
   269   1                   9.375      61.875000000000007      60.000000000000007
   270   1                   9.375      60.000000000000007                  65.625
   271   1                   9.375      61.875000000000007      63.750000000000007
   272   1                   9.375      63.750000000000007                  43.125
   273   1                   9.375      63.750000000000007                  46.875
   274   1                   9.375                  65.625                      45
   275   1      7.5000000000000009      63.750000000000007                   48.75
   276   1      7.5000000000000009                  65.625      50.625000000000007
   277   1                   9.375      63.750000000000007      50.625000000000007
   278   1                   9.375                  65.625                   48.75
   279   1      7.5000000000000009      63.750000000000007                    52.5
   280   1      7.5000000000000009                  65.625                  54.375
   281   1                   9.375      63.750000000000007                  54.375
   282   1                   9.375                  65.625                    52.5
   283   1      7.5000000000000009      63.750000000000007      56.250000000000007
   284   1                   9.375      63.750000000000007      58.125000000000007
   285   1                   9.375                  65.625      56.250000000000007
   286   1                   9.375      63.750000000000007      61.875000000000007
   287   1                   9.375                  65.625      60.000000000000007
   288   1                   9.375                    67.5      50.625000000000007
   289   1      7.5000000000000009                    67.5                    52.5
   290   1                   9.375                    67.5                  54.375
   291   1                   9.375                  69.375                    52.5
   292   1                  13.125      28.125000000000004                    52.5
   293   1                  13.125      30.000000000000004      50.625000000000007
   294   1                  13.125      31.875000000000004                   48.75
   295   1                  13.125      30.000000000000004                  54.375
   296   1                  13.125      31.875000000000004                    52.5
   297   1                  13.125      31.875000000000004      56.250000000000007
   298   1                  13.125                  35.625                   41.25
   299   1                   11.25                  35.625                  46.875
   300   1                  13.125                   33.75                  46.875
   301   1                  13.125                  35.625                      45
   302   1                   11.25                   33.75                   48.75
   303   1                   11.25                  35.625      50.625000000000007
   304   1                  13.125                   33.75      50.625000000000007
   305   1                  13.125                  35.625                   48.75
   306   1                   11.25                   33.75                    52.5
   307   1                   11.25                  35.625                  54.375
   308   1                  13.125                   33.75                  54.375
   309   1                  13.125                  35.625                    52.5
   310   1                   11.25                   33.75      56.250000000000007
   311   1                   11.25                  35.625      58.125000000000007
   312   1                  13.125                   33.75      58.125000000000007
   313   1                  13.125                  35.625      56.250000000000007
   314   1                  13.125                  35.625      60.000000000000007
   315   1                  13.125                  35.625      63.750000000000007
   316   1                  13.125                    37.5      39.375000000000007
   317   1                  13.125      39.375000000000007                    37.5
   318   1                   11.25      39.375000000000007                  43.125
   319   1                  13.125                    37.5                  43.125
   320   1                  13.125      39.375000000000007                   41.25
   321   1                   11.25                    37.5                      45
   322   1                   11.25      39.375000000000007                  46.875
   323   1                  13.125                    37.5                  46.875
   324   1                  13.125      39.375000000000007                      45
   325   1                   11.25                    37.5                   48.75
   326   1                   11.25      39.375000000000007      50.625000000000007
   327   1                  13.125                    37.5      50.625000000000007
   328   1                  13.125      39.375000000000007                   48.75
   329   1                   11.25                    37.5                    52.5
   330   1                   11.25      39.375000000000007                  54.375
   331   1                  13.125                    37.5                  54.375
   332   1                  13.125      39.375000000000007                    52.5
   333   1                   11.25                    37.5      56.250000000000007
   334   1                   11.25      39.375000000000007      58.125000000000007
   335   1                  13.125                    37.5      58.125000000000007
   336   1                  13.125      39.375000000000007      56.250000000000007
   337   1                   11.25                    37.5      60.000000000000007
   338   1                   11.25      39.375000000000007      61.875000000000007
   339   1                  13.125                    37.5      61.875000000000007
   340   1                  13.125      39.375000000000007      60.000000000000007
   341   1                  13.125                    37.5                  65.625
   342   1                  13.125      39.375000000000007      63.750000000000007
   343   1                  13.125      39.375000000000007                    67.5
   344   1                  13.125                   41.25                  35.625
   345   1                   11.25                  43.125      39.375000000000007
   346   1                  13.125                   41.25      39.375000000000007
   347   1                  13.125                  43.125                    37.5
   348   1                   11.25                   41.25                   41.25
   349   1                   11.25                  43.125                  43.125
   350   1                  13.125                   41.25                  43.125
   351   1                  13.125                  43.125                   41.25
   352   1                   11.25                   41.25                      45
   353   1                   11.25                  43.125                  46.875
   354   1                  13.125                   41.25                  46.875
   355   1                  13.125                  43.125                      45
   356   1                   11.25                   41.25                   48.75
   357   1                   11.25                  43.125      50.625000000000007
   358   1                  13.125                   41.25      50.625000000000007