model_files/Ni/Ni_30000/Ni_100/data.Ni_100_fcc_29659 (written by ASE) 

29659 	 atoms 
1  atom types
0.0                      66  xlo xhi
0.0                      66  ylo yhi
0.0                      66  zlo zhi


Atoms 

     1   1      65.999999999999986      65.999999999999986      1.7599999999999947
     2   1      65.999999999999986      65.999999999999986      5.2799999999999949
     3   1      65.999999999999986      65.999999999999986      8.7999999999999972
     4   1      65.999999999999986      65.999999999999986      12.319999999999993
     5   1      65.999999999999986      65.999999999999986      15.839999999999998
     6   1      65.999999999999986      65.999999999999986      19.359999999999996
     7   1      65.999999999999986      65.999999999999986      22.879999999999995
     8   1      65.999999999999986      65.999999999999986      26.399999999999995
     9   1      65.999999999999986      65.999999999999986      29.919999999999995
    10   1      65.999999999999986      65.999999999999986      33.439999999999998
    11   1      65.999999999999986      65.999999999999986      36.959999999999994
    12   1      65.999999999999986      65.999999999999986      40.479999999999997
    13   1      65.999999999999986      65.999999999999986                      44
    14   1      65.999999999999986      65.999999999999986      47.519999999999996
    15   1      65.999999999999986      65.999999999999986      51.039999999999992
    16   1      65.999999999999986      65.999999999999986      54.560000000000002
    17   1      65.999999999999986      65.999999999999986      58.079999999999998
    18   1      65.999999999999986      65.999999999999986      61.599999999999994
    19   1      65.999999999999986      65.999999999999986       65.11999999999999
    20   1      65.999999999999986      1.7599999999999947      65.999999999999986
    21   1      65.999999999999986      1.7599999999999947       3.519999999999996
    22   1      65.999999999999986       3.519999999999996      1.7599999999999947
    23   1      65.999999999999986      1.7599999999999947      7.0399999999999956
    24   1      65.999999999999986       3.519999999999996      5.2799999999999949
    25   1      65.999999999999986      1.7599999999999947      10.559999999999995
    26   1      65.999999999999986       3.519999999999996      8.7999999999999972
    27   1      65.999999999999986      1.7599999999999947      14.079999999999995
    28   1      65.999999999999986       3.519999999999996      12.319999999999993
    29   1      65.999999999999986      1.7599999999999947      17.600000000000001
    30   1      65.999999999999986       3.519999999999996      15.839999999999998
    31   1      65.999999999999986      1.7599999999999947      21.119999999999997
    32   1      65.999999999999986       3.519999999999996      19.359999999999996
    33   1      65.999999999999986      1.7599999999999947      24.639999999999997
    34   1      65.999999999999986       3.519999999999996      22.879999999999995
    35   1      65.999999999999986      1.7599999999999947      28.159999999999997
    36   1      65.999999999999986       3.519999999999996      26.399999999999995
    37   1      65.999999999999986      1.7599999999999947      31.679999999999996
    38   1      65.999999999999986       3.519999999999996      29.919999999999995
    39   1      65.999999999999986      1.7599999999999947      35.200000000000003
    40   1      65.999999999999986       3.519999999999996      33.439999999999998
    41   1      65.999999999999986      1.7599999999999947      38.719999999999992
    42   1      65.999999999999986       3.519999999999996      36.959999999999994
    43   1      65.999999999999986      1.7599999999999947      42.239999999999995
    44   1      65.999999999999986       3.519999999999996      40.479999999999997
    45   1      65.999999999999986      1.7599999999999947      45.759999999999991
    46   1      65.999999999999986       3.519999999999996                      44
    47   1      65.999999999999986      1.7599999999999947      49.279999999999994
    48   1      65.999999999999986       3.519999999999996      47.519999999999996
    49   1      65.999999999999986      1.7599999999999947       52.79999999999999
    50   1      65.999999999999986       3.519999999999996      51.039999999999992
    51   1      65.999999999999986      1.7599999999999947      56.319999999999993
    52   1      65.999999999999986       3.519999999999996      54.560000000000002
    53   1      65.999999999999986      1.7599999999999947      59.839999999999996
    54   1      65.999999999999986       3.519999999999996      58.079999999999998
    55   1      65.999999999999986      1.7599999999999947      63.359999999999999
    56   1      65.999999999999986       3.519999999999996      61.599999999999994
    57   1      65.999999999999986      1.7599999999999947      0.8799999999999909
    58   1      65.999999999999986       3.519999999999996       65.11999999999999
    59   1      65.999999999999986      5.2799999999999949      65.999999999999986
    60   1      65.999999999999986      5.2799999999999949       3.519999999999996
    61   1      65.999999999999986      7.0399999999999956      1.7599999999999947
    62   1      65.999999999999986      5.2799999999999949      7.0399999999999956
    63   1      65.999999999999986      7.0399999999999956      5.2799999999999949
    64   1      65.999999999999986      5.2799999999999949      10.559999999999995
    65   1      65.999999999999986      7.0399999999999956      8.7999999999999972
    66   1      65.999999999999986      5.2799999999999949      14.079999999999995
    67   1      65.999999999999986      7.0399999999999956      12.319999999999993
    68   1      65.999999999999986      5.2799999999999949      17.600000000000001
    69   1      65.999999999999986      7.0399999999999956      15.839999999999998
    70   1      65.999999999999986      5.2799999999999949      21.119999999999997
    71   1      65.999999999999986      7.0399999999999956      19.359999999999996
    72   1      65.999999999999986      5.2799999999999949      24.639999999999997
    73   1      65.999999999999986      7.0399999999999956      22.879999999999995
    74   1      65.999999999999986      5.2799999999999949      28.159999999999997
    75   1      65.999999999999986      7.0399999999999956      26.399999999999995
    76   1      65.999999999999986      5.2799999999999949      31.679999999999996
    77   1      65.999999999999986      7.0399999999999956      29.919999999999995
    78   1      65.999999999999986      5.2799999999999949      35.200000000000003
    79   1      65.999999999999986      7.0399999999999956      33.439999999999998
    80   1      65.999999999999986      5.2799999999999949      38.719999999999992
    81   1      65.999999999999986      7.0399999999999956      36.959999999999994
    82   1      65.999999999999986      5.2799999999999949      42.239999999999995
    83   1      65.999999999999986      7.0399999999999956      40.479999999999997
    84   1      65.999999999999986      5.2799999999999949      45.759999999999991
    85   1      65.999999999999986      7.0399999999999956                      44
    86   1      65.999999999999986      5.2799999999999949      49.279999999999994
    87   1      65.999999999999986      7.0399999999999956      47.519999999999996
    88   1      65.999999999999986      5.2799999999999949       52.79999999999999
    89   1      65.999999999999986      7.0399999999999956      51.039999999999992
    90   1      65.999999999999986      5.2799999999999949      56.319999999999993
    91   1      65.999999999999986      7.0399999999999956      54.560000000000002
    92   1      65.999999999999986      5.2799999999999949      59.839999999999996
    93   1      65.999999999999986      7.0399999999999956      58.079999999999998
    94   1      65.999999999999986      5.2799999999999949      63.359999999999999
    95   1      65.999999999999986      7.0399999999999956      61.599999999999994
    96   1      65.999999999999986      5.2799999999999949      0.8799999999999909
    97   1      65.999999999999986      7.0399999999999956       65.11999999999999
    98   1      65.999999999999986      8.7999999999999972      65.999999999999986
    99   1      65.999999999999986      8.7999999999999972       3.519999999999996
   100   1      65.999999999999986      10.559999999999995      1.7599999999999947
   101   1      65.999999999999986      8.7999999999999972      7.0399999999999956
   102   1      65.999999999999986      10.559999999999995      5.2799999999999949
   103   1      65.999999999999986      8.7999999999999972      10.559999999999995
   104   1      65.999999999999986      10.559999999999995      8.7999999999999972
   105   1      65.999999999999986      8.7999999999999972      14.079999999999995
   106   1      65.999999999999986      10.559999999999995      12.319999999999993
   107   1      65.999999999999986      8.7999999999999972      17.600000000000001
   108   1      65.999999999999986      10.559999999999995      15.839999999999998
   109   1      65.999999999999986      8.7999999999999972      21.119999999999997
   110   1      65.999999999999986      10.559999999999995      19.359999999999996
   111   1      65.999999999999986      8.7999999999999972      24.639999999999997
   112   1      65.999999999999986      10.559999999999995      22.879999999999995
   113   1      65.999999999999986      8.7999999999999972      28.159999999999997
   114   1      65.999999999999986      10.559999999999995      26.399999999999995
   115   1      65.999999999999986      8.7999999999999972      31.679999999999996
   116   1      65.999999999999986      10.559999999999995      29.919999999999995
   117   1      65.999999999999986      8.7999999999999972      35.200000000000003
   118   1      65.999999999999986      10.559999999999995      33.439999999999998
   119   1      65.999999999999986      8.7999999999999972      38.719999999999992
   120   1      65.999999999999986      10.559999999999995      36.959999999999994
   121   1      65.999999999999986      8.7999999999999972      42.239999999999995
   122   1      65.999999999999986      10.559999999999995      40.479999999999997
   123   1      65.999999999999986      8.7999999999999972      45.759999999999991
   124   1      65.999999999999986      10.559999999999995                      44
   125   1      65.999999999999986      8.7999999999999972      49.279999999999994
   126   1      65.999999999999986      10.559999999999995      47.519999999999996
   127   1      65.999999999999986      8.7999999999999972       52.79999999999999
   128   1      65.999999999999986      10.559999999999995      51.039999999999992
   129   1      65.999999999999986      8.7999999999999972      56.319999999999993
   130   1      65.999999999999986      10.559999999999995      54.560000000000002
   131   1      65.999999999999986      8.7999999999999972      59.839999999999996
   132   1      65.999999999999986      10.559999999999995      58.079999999999998
   133   1      65.999999999999986      8.7999999999999972      63.359999999999999
   134   1      65.999999999999986      10.559999999999995      61.599999999999994
   135   1      65.999999999999986      8.7999999999999972      0.8799999999999909
   136   1      65.999999999999986      10.559999999999995       65.11999999999999
   137   1      65.999999999999986      12.319999999999993      65.999999999999986
   138   1      65.999999999999986      12.319999999999993       3.519999999999996
   139   1      65.999999999999986      14.079999999999995      1.7599999999999947
   140   1      65.999999999999986      12.319999999999993      7.0399999999999956
   141   1      65.999999999999986      14.079999999999995      5.2799999999999949
   142   1      65.999999999999986      12.319999999999993      10.559999999999995
   143   1      65.999999999999986      14.079999999999995      8.7999999999999972
   144   1      65.999999999999986      12.319999999999993      14.079999999999995
   145   1      65.999999999999986      14.079999999999995      12.319999999999993
   146   1      65.999999999999986      12.319999999999993      17.600000000000001
   147   1      65.999999999999986      14.079999999999995      15.839999999999998
   148   1      65.999999999999986      12.319999999999993      21.119999999999997
   149   1      65.999999999999986      14.079999999999995      19.359999999999996
   150   1      65.999999999999986      12.319999999999993      24.639999999999997
   151   1      65.999999999999986      14.079999999999995      22.879999999999995
   152   1      65.999999999999986      12.319999999999993      28.159999999999997
   153   1      65.999999999999986      14.079999999999995      26.399999999999995
   154   1      65.999999999999986      12.319999999999993      31.679999999999996
   155   1      65.999999999999986      14.079999999999995      29.919999999999995
   156   1      65.999999999999986      12.319999999999993      35.200000000000003
   157   1      65.999999999999986      14.079999999999995      33.439999999999998
   158   1      65.999999999999986      12.319999999999993      38.719999999999992
   159   1      65.999999999999986      14.079999999999995      36.959999999999994
   160   1      65.999999999999986      12.319999999999993      42.239999999999995
   161   1      65.999999999999986      14.079999999999995      40.479999999999997
   162   1      65.999999999999986      12.319999999999993      45.759999999999991
   163   1      65.999999999999986      14.079999999999995                      44
   164   1      65.999999999999986      12.319999999999993      49.279999999999994
   165   1      65.999999999999986      14.079999999999995      47.519999999999996
   166   1      65.999999999999986      12.319999999999993       52.79999999999999
   167   1      65.999999999999986      14.079999999999995      51.039999999999992
   168   1      65.999999999999986      12.319999999999993      56.319999999999993
   169   1      65.999999999999986      14.079999999999995      54.560000000000002
   170   1      65.999999999999986      12.319999999999993      59.839999999999996
   171   1      65.999999999999986      14.079999999999995      58.079999999999998
   172   1      65.999999999999986      12.319999999999993      63.359999999999999
   173   1      65.999999999999986      14.079999999999995      61.599999999999994
   174   1      65.999999999999986      12.319999999999993      0.8799999999999909
   175   1      65.999999999999986      14.079999999999995       65.11999999999999
   176   1      65.999999999999986      15.839999999999998      65.999999999999986
   177   1      65.999999999999986      15.839999999999998       3.519999999999996
   178   1      65.999999999999986      17.600000000000001      1.7599999999999947
   179   1      65.999999999999986      15.839999999999998      7.0399999999999956
   180   1      65.999999999999986      17.600000000000001      5.2799999999999949
   181   1      65.999999999999986      15.839999999999998      10.559999999999995
   182   1      65.999999999999986      17.600000000000001      8.7999999999999972
   183   1      65.999999999999986      15.839999999999998      14.079999999999995
   184   1      65.999999999999986      17.600000000000001      12.319999999999993
   185   1      65.999999999999986      15.839999999999998      17.600000000000001
   186   1      65.999999999999986      17.600000000000001      15.839999999999998
   187   1      65.999999999999986      15.839999999999998      21.119999999999997
   188   1      65.999999999999986      17.600000000000001      19.359999999999996
   189   1      65.999999999999986      15.839999999999998      24.639999999999997
   190   1      65.999999999999986      17.600000000000001      22.879999999999995
   191   1      65.999999999999986      15.839999999999998      28.159999999999997
   192   1      65.999999999999986      17.600000000000001      26.399999999999995
   193   1      65.999999999999986      15.839999999999998      31.679999999999996
   194   1      65.999999999999986      17.600000000000001      29.919999999999995
   195   1      65.999999999999986      15.839999999999998      35.200000000000003
   196   1      65.999999999999986      17.600000000000001      33.439999999999998
   197   1      65.999999999999986      15.839999999999998      38.719999999999992
   198   1      65.999999999999986      17.600000000000001      36.959999999999994
   199   1      65.999999999999986      15.839999999999998      42.239999999999995
   200   1      65.999999999999986      17.600000000000001      40.479999999999997
   201   1      65.999999999999986      15.839999999999998      45.759999999999991
   202   1      65.999999999999986      17.600000000000001                      44
   203   1      65.999999999999986      15.839999999999998      49.279999999999994
   204   1      65.999999999999986      17.600000000000001      47.519999999999996
   205   1      65.999999999999986      15.839999999999998       52.79999999999999
   206   1      65.999999999999986      17.600000000000001      51.039999999999992
   207   1      65.999999999999986      15.839999999999998      56.319999999999993
   208   1      65.999999999999986      17.600000000000001      54.560000000000002
   209   1      65.999999999999986      15.839999999999998      59.839999999999996
   210   1      65.999999999999986      17.600000000000001      58.079999999999998
   211   1      65.999999999999986      15.839999999999998      63.359999999999999
   212   1      65.999999999999986      17.600000000000001      61.599999999999994
   213   1      65.999999999999986      15.839999999999998      0.8799999999999909
   214   1      65.999999999999986      17.600000000000001       65.11999999999999
   215   1      65.999999999999986      19.359999999999996      65.999999999999986
   216   1      65.999999999999986      19.359999999999996       3.519999999999996
   217   1      65.999999999999986      21.119999999999997      1.7599999999999947
   218   1      65.999999999999986      19.359999999999996      7.0399999999999956
   219   1      65.999999999999986      21.119999999999997      5.2799999999999949
   220   1      65.999999999999986      19.359999999999996      10.559999999999995
   221   1      65.999999999999986      21.119999999999997      8.7999999999999972
   222   1      65.999999999999986      19.359999999999996      14.079999999999995
   223   1      65.999999999999986      21.119999999999997      12.319999999999993
   224   1      65.999999999999986      19.359999999999996      17.600000000000001
   225   1      65.999999999999986      21.119999999999997      15.839999999999998
   226   1      65.999999999999986      19.359999999999996      21.119999999999997
   227   1      65.999999999999986      21.119999999999997      19.359999999999996
   228   1      65.999999999999986      19.359999999999996      24.639999999999997
   229   1      65.999999999999986      21.119999999999997      22.879999999999995
   230   1      65.999999999999986      19.359999999999996      28.159999999999997
   231   1      65.999999999999986      21.119999999999997      26.399999999999995
   232   1      65.999999999999986      19.359999999999996      31.679999999999996
   233   1      65.999999999999986      21.119999999999997      29.919999999999995
   234   1      65.999999999999986      19.359999999999996      35.200000000000003
   235   1      65.999999999999986      21.119999999999997      33.439999999999998
   236   1      65.999999999999986      19.359999999999996      38.719999999999992
   237   1      65.999999999999986      21.119999999999997      36.959999999999994
   238   1      65.999999999999986      19.359999999999996      42.239999999999995
   239   1      65.999999999999986      21.119999999999997      40.479999999999997
   240   1      65.999999999999986      19.359999999999996      45.759999999999991
   241   1      65.999999999999986      21.119999999999997                      44
   242   1      65.999999999999986      19.359999999999996      49.279999999999994
   243   1      65.999999999999986      21.119999999999997      47.519999999999996
   244   1      65.999999999999986      19.359999999999996       52.79999999999999
   245   1      65.999999999999986      21.119999999999997      51.039999999999992
   246   1      65.999999999999986      19.359999999999996      56.319999999999993
   247   1      65.999999999999986      21.119999999999997      54.560000000000002
   248   1      65.999999999999986      19.359999999999996      59.839999999999996
   249   1      65.999999999999986      21.119999999999997      58.079999999999998
   250   1      65.999999999999986      19.359999999999996      63.359999999999999
   251   1      65.999999999999986      21.119999999999997      61.599999999999994
   252   1      65.999999999999986      19.359999999999996      0.8799999999999909
   253   1      65.999999999999986      21.119999999999997       65.11999999999999
   254   1      65.999999999999986      22.879999999999995      65.999999999999986
   255   1      65.999999999999986      22.879999999999995       3.519999999999996
   256   1      65.999999999999986      24.639999999999997      1.7599999999999947
   257   1      65.999999999999986      22.879999999999995      7.0399999999999956
   258   1      65.999999999999986      24.639999999999997      5.2799999999999949
   259   1      65.999999999999986      22.879999999999995      10.559999999999995
   260   1      65.999999999999986      24.639999999999997      8.7999999999999972
   261   1      65.999999999999986      22.879999999999995      14.079999999999995
   262   1      65.999999999999986      24.639999999999997      12.319999999999993
   263   1      65.999999999999986      22.879999999999995      17.600000000000001
   264   1      65.999999999999986      24.639999999999997      15.839999999999998
   265   1      65.999999999999986      22.879999999999995      21.119999999999997
   266   1      65.999999999999986      24.639999999999997      19.359999999999996
   267   1      65.999999999999986      22.879999999999995      24.639999999999997
   268   1      65.999999999999986      24.639999999999997      22.879999999999995
   269   1      65.999999999999986      22.879999999999995      28.159999999999997
   270   1      65.999999999999986      24.639999999999997      26.399999999999995
   271   1      65.999999999999986      22.879999999999995      31.679999999999996
   272   1      65.999999999999986      24.639999999999997      29.919999999999995
   273   1      65.999999999999986      22.879999999999995      35.200000000000003
   274   1      65.999999999999986      24.639999999999997      33.439999999999998
   275   1      65.999999999999986      22.879999999999995      38.719999999999992
   276   1      65.999999999999986      24.639999999999997      36.959999999999994
   277   1      65.999999999999986      22.879999999999995      42.239999999999995
   278   1      65.999999999999986      24.639999999999997      40.479999999999997
   279   1      65.999999999999986      22.879999999999995      45.759999999999991
   280   1      65.999999999999986      24.639999999999997                      44
   281   1      65.999999999999986      22.879999999999995      49.279999999999994
   282   1      65.999999999999986      24.639999999999997      47.519999999999996
   283   1      65.999999999999986      22.879999999999995       52.79999999999999
   284   1      65.999999999999986      24.639999999999997      51.039999999999992
   285   1      65.999999999999986      22.879999999999995      56.319999999999993
   286   1      65.999999999999986      24.639999999999997      54.560000000000002
   287   1      65.999999999999986      22.879999999999995      59.839999999999996
   288   1      65.999999999999986      24.639999999999997      58.079999999999998
   289   1      65.999999999999986      22.879999999999995      63.359999999999999
   290   1      65.999999999999986      24.639999999999997      61.599999999999994
   291   1      65.999999999999986      22.879999999999995      0.8799999999999909
   292   1      65.999999999999986      24.639999999999997       65.11999999999999
   293   1      65.999999999999986      26.399999999999995      65.999999999999986
   294   1      65.999999999999986      26.399999999999995       3.519999999999996
   295   1      65.999999999999986      28.159999999999997      1.7599999999999947
   296   1      65.999999999999986      26.399999999999995      7.0399999999999956
   297   1      65.999999999999986      28.159999999999997      5.2799999999999949
   298   1      65.999999999999986      26.399999999999995      10.559999999999995
   299   1      65.999999999999986      28.159999999999997      8.7999999999999972
   300   1      65.999999999999986      26.399999999999995      14.079999999999995
   301   1      65.999999999999986      28.159999999999997      12.319999999999993
   302   1      65.999999999999986      26.399999999999995      17.600000000000001
   303   1      65.999999999999986      28.159999999999997      15.839999999999998
   304   1      65.999999999999986      26.399999999999995      21.119999999999997
   305   1      65.999999999999986      28.159999999999997      19.359999999999996
   306   1      65.999999999999986      26.399999999999995      24.639999999999997
   307   1      65.999999999999986      28.159999999999997      22.879999999999995
   308   1      65.999999999999986      26.399999999999995      28.159999999999997
   309   1      65.999999999999986      28.159999999999997      26.399999999999995
   310   1      65.999999999999986      26.399999999999995      31.679999999999996
   311   1      65.999999999999986      28.159999999999997      29.919999999999995
   312   1      65.999999999999986      26.399999999999995      35.200000000000003
   313   1      65.999999999999986      28.159999999999997      33.439999999999998
   314   1      65.999999999999986      26.399999999999995      38.719999999999992
   315   1      65.999999999999986      28.159999999999997      36.959999999999994
   316   1      65.999999999999986      26.399999999999995      42.239999999999995
   317   1      65.999999999999986      28.159999999999997      40.479999999999997
   318   1      65.999999999999986      26.399999999999995      45.759999999999991
   319   1      65.999999999999986      28.159999999999997                      44
   320   1      65.999999999999986      26.399999999999995      49.279999999999994
   321   1      65.999999999999986      28.159999999999997      47.519999999999996
   322   1      65.999999999999986      26.399999999999995       52.79999999999999
   323   1      65.999999999999986      28.159999999999997      51.039999999999992
   324   1      65.999999999999986      26.399999999999995      56.319999999999993
   325   1      65.999999999999986      28.159999999999997      54.560000000000002
   326   1      65.999999999999986      26.399999999999995      59.839999999999996
   327   1      65.999999999999986      28.159999999999997      58.079999999999998
   328   1      65.999999999999986      26.399999999999995      63.359999999999999
   329   1      65.999999999999986      28.159999999999997      61.599999999999994
   330   1      65.999999999999986      26.399999999999995      0.8799999999999909
   331   1      65.999999999999986      28.159999999999997       65.11999999999999
   332   1      65.999999999999986      29.919999999999995      65.999999999999986
   333   1      65.999999999999986      29.919999999999995       3.519999999999996
   334   1      65.999999999999986      31.679999999999996      1.7599999999999947
   335   1      65.999999999999986      29.919999999999995      7.0399999999999956
   336   1      65.999999999999986      31.679999999999996      5.2799999999999949
   337   1      65.999999999999986      29.919999999999995      10.559999999999995
   338   1      65.999999999999986      31.679999999999996      8.7999999999999972
   339   1      65.999999999999986      29.919999999999995      14.079999999999995
   340   1      65.999999999999986      31.679999999999996      12.319999999999993
   341   1      65.999999999999986      29.919999999999995      17.600000000000001
   342   1      65.999999999999986      31.679999999999996      15.839999999999998
   343   1      65.999999999999986      29.919999999999995      21.119999999999997
   344   1      65.999999999999986      31.679999999999996      19.359999999999996
   345   1      65.999999999999986      29.919999999999995      24.639999999999997
   346   1      65.999999999999986      31.679999999999996      22.879999999999995
   347   1      65.999999999999986      29.919999999999995      28.159999999999997
   348   1      65.999999999999986      31.679999999999996      26.399999999999995
   349   1      65.999999999999986      29.919999999999995      31.679999999999996
   350   1      65.999999999999986      31.679999999999996      29.919999999999995
   351   1      65.999999999999986      29.919999999999995      35.200000000000003
   352   1      65.999999999999986      31.679999999999996      33.439999999999998
   353   1      65.999999999999986      29.919999999999995      38.719999999999992
   354   1      65.999999999999986      31.679999999999996      36.959999999999994
   355   1      65.999999999999986      29.919999999999995      42.239999999999995
   356   1      65.999999999999986      31.679999999999996      40.479999999999997
   357   1      65.999999999999986      29.919999999999995      45.759999999999991
   358   1      65.999999999999986      31.679999999999996                      44