model_files/PdCo/PdCo_30000/PdCo_430/PdCo_430_fcc_29909_temp.data (written by ASE) 

29909 	 atoms 
2  atom types
0.0                     104  xlo xhi
0.0                     104  ylo yhi
0.0                     104  zlo zhi


Atoms 

     1   1      1.8750000000000002      50.625000000000007                    52.5
     2   1      1.8750000000000002                    52.5      50.625000000000007
     3   1                       0                    52.5                    52.5
     4   1      1.8750000000000002                    52.5                  54.375
     5   1      1.8750000000000002                  54.375                    52.5
     6   1      3.7500000000000004                  46.875                  46.875
     7   1                   5.625                      45                  46.875
     8   1                   5.625                  46.875                      45
     9   1      3.7500000000000004                  46.875      50.625000000000007
    10   1                   5.625                      45      50.625000000000007
    11   1                   5.625                  46.875                   48.75
    12   1      3.7500000000000004                  46.875                  54.375
    13   1                   5.625                      45                  54.375
    14   1                   5.625                  46.875                    52.5
    15   1      3.7500000000000004                  46.875      58.125000000000007
    16   1                   5.625                      45      58.125000000000007
    17   1                   5.625                  46.875      56.250000000000007
    18   1                   5.625                  46.875      60.000000000000007
    19   1      3.7500000000000004      50.625000000000007                  46.875
    20   1                   5.625                   48.75                  46.875
    21   1                   5.625      50.625000000000007                      45
    22   1      3.7500000000000004                   48.75                   48.75
    23   1      3.7500000000000004      50.625000000000007      50.625000000000007
    24   1                   5.625                   48.75      50.625000000000007
    25   1                   5.625      50.625000000000007                   48.75
    26   1      3.7500000000000004                   48.75                    52.5
    27   1      3.7500000000000004      50.625000000000007                  54.375
    28   1                   5.625                   48.75                  54.375
    29   1                   5.625      50.625000000000007                    52.5
    30   1      3.7500000000000004                   48.75      56.250000000000007
    31   1      3.7500000000000004      50.625000000000007      58.125000000000007
    32   1                   5.625                   48.75      58.125000000000007
    33   1                   5.625      50.625000000000007      56.250000000000007
    34   1                   5.625      50.625000000000007      60.000000000000007
    35   1      3.7500000000000004                  54.375                  46.875
    36   1                   5.625                    52.5                  46.875
    37   1                   5.625                  54.375                      45
    38   1      3.7500000000000004                    52.5                   48.75
    39   1      3.7500000000000004                  54.375      50.625000000000007
    40   1                   5.625                    52.5      50.625000000000007
    41   1                   5.625                  54.375                   48.75
    42   1      3.7500000000000004                    52.5                    52.5
    43   1      3.7500000000000004                  54.375                  54.375
    44   1                   5.625                    52.5                  54.375
    45   1                   5.625                  54.375                    52.5
    46   1      3.7500000000000004                    52.5      56.250000000000007
    47   1      3.7500000000000004                  54.375      58.125000000000007
    48   1                   5.625                    52.5      58.125000000000007
    49   1                   5.625                  54.375      56.250000000000007
    50   1                   5.625                  54.375      60.000000000000007
    51   1      3.7500000000000004      58.125000000000007                  46.875
    52   1                   5.625      56.250000000000007                  46.875
    53   1                   5.625      58.125000000000007                      45
    54   1      3.7500000000000004      56.250000000000007                   48.75
    55   1      3.7500000000000004      58.125000000000007      50.625000000000007
    56   1                   5.625      56.250000000000007      50.625000000000007
    57   1                   5.625      58.125000000000007                   48.75
    58   1      3.7500000000000004      56.250000000000007                    52.5
    59   1      3.7500000000000004      58.125000000000007                  54.375
    60   1                   5.625      56.250000000000007                  54.375
    61   1                   5.625      58.125000000000007                    52.5
    62   1      3.7500000000000004      56.250000000000007      56.250000000000007
    63   1      3.7500000000000004      58.125000000000007      58.125000000000007
    64   1                   5.625      56.250000000000007      58.125000000000007
    65   1                   5.625      58.125000000000007      56.250000000000007
    66   1                   5.625      58.125000000000007      60.000000000000007
    67   1                   5.625      60.000000000000007                  46.875
    68   1                   5.625      60.000000000000007      50.625000000000007
    69   1                   5.625      60.000000000000007                  54.375
    70   1                   5.625      60.000000000000007      58.125000000000007
    71   1                   9.375      39.375000000000007                   41.25
    72   1                   9.375      39.375000000000007                      45
    73   1                   9.375      39.375000000000007                   48.75
    74   1                   9.375      39.375000000000007                    52.5
    75   1                   9.375      39.375000000000007      56.250000000000007
    76   1                   9.375      39.375000000000007      60.000000000000007
    77   1                   9.375      39.375000000000007      63.750000000000007
    78   1                   9.375                   41.25      39.375000000000007
    79   1      7.5000000000000009                  43.125                  43.125
    80   1                   9.375                   41.25                  43.125
    81   1                   9.375                  43.125                   41.25
    82   1      7.5000000000000009                  43.125                  46.875
    83   1                   9.375                   41.25                  46.875
    84   1                   9.375                  43.125                      45
    85   1      7.5000000000000009                  43.125      50.625000000000007
    86   1                   9.375                   41.25      50.625000000000007
    87   1                   9.375                  43.125                   48.75
    88   1      7.5000000000000009                  43.125                  54.375
    89   1                   9.375                   41.25                  54.375
    90   1                   9.375                  43.125                    52.5
    91   1      7.5000000000000009                  43.125      58.125000000000007
    92   1                   9.375                   41.25      58.125000000000007
    93   1                   9.375                  43.125      56.250000000000007
    94   1      7.5000000000000009                  43.125      61.875000000000007
    95   1                   9.375                   41.25      61.875000000000007
    96   1                   9.375                  43.125      60.000000000000007
    97   1                   9.375                   41.25                  65.625
    98   1                   9.375                  43.125      63.750000000000007
    99   1                   9.375                      45      39.375000000000007
   100   1      7.5000000000000009                  46.875                  43.125
   101   1                   9.375                      45                  43.125
   102   1                   9.375                  46.875                   41.25
   103   1      7.5000000000000009                      45                      45
   104   1      7.5000000000000009                  46.875                  46.875
   105   1                   9.375                      45                  46.875
   106   1                   9.375                  46.875                      45
   107   1      7.5000000000000009                      45                   48.75
   108   1      7.5000000000000009                  46.875      50.625000000000007
   109   1                   9.375                      45      50.625000000000007
   110   1                   9.375                  46.875                   48.75
   111   1      7.5000000000000009                      45                    52.5
   112   1      7.5000000000000009                  46.875                  54.375
   113   1                   9.375                      45                  54.375
   114   1                   9.375                  46.875                    52.5
   115   1      7.5000000000000009                      45      56.250000000000007
   116   1      7.5000000000000009                  46.875      58.125000000000007
   117   1                   9.375                      45      58.125000000000007
   118   1                   9.375                  46.875      56.250000000000007
   119   1      7.5000000000000009                      45      60.000000000000007
   120   1      7.5000000000000009                  46.875      61.875000000000007
   121   1                   9.375                      45      61.875000000000007
   122   1                   9.375                  46.875      60.000000000000007
   123   1                   9.375                      45                  65.625
   124   1                   9.375                  46.875      63.750000000000007
   125   1                   9.375                   48.75      39.375000000000007
   126   1      7.5000000000000009      50.625000000000007                  43.125
   127   1                   9.375                   48.75                  43.125
   128   1                   9.375      50.625000000000007                   41.25
   129   1      7.5000000000000009                   48.75                      45
   130   1      7.5000000000000009      50.625000000000007                  46.875
   131   1                   9.375                   48.75                  46.875
   132   1                   9.375      50.625000000000007                      45
   133   1      7.5000000000000009                   48.75                   48.75
   134   1      7.5000000000000009      50.625000000000007      50.625000000000007
   135   1                   9.375                   48.75      50.625000000000007
   136   1                   9.375      50.625000000000007                   48.75
   137   1      7.5000000000000009                   48.75                    52.5
   138   1      7.5000000000000009      50.625000000000007                  54.375
   139   1                   9.375                   48.75                  54.375
   140   1                   9.375      50.625000000000007                    52.5
   141   1      7.5000000000000009                   48.75      56.250000000000007
   142   1      7.5000000000000009      50.625000000000007      58.125000000000007
   143   1                   9.375                   48.75      58.125000000000007
   144   1                   9.375      50.625000000000007      56.250000000000007
   145   1      7.5000000000000009                   48.75      60.000000000000007
   146   1      7.5000000000000009      50.625000000000007      61.875000000000007
   147   1                   9.375                   48.75      61.875000000000007
   148   1                   9.375      50.625000000000007      60.000000000000007
   149   1                   9.375                   48.75                  65.625
   150   1                   9.375      50.625000000000007      63.750000000000007
   151   1                   9.375                    52.5      39.375000000000007
   152   1      7.5000000000000009                  54.375                  43.125
   153   1                   9.375                    52.5                  43.125
   154   1                   9.375                  54.375                   41.25
   155   1      7.5000000000000009                    52.5                      45
   156   1      7.5000000000000009                  54.375                  46.875
   157   1                   9.375                    52.5                  46.875
   158   1                   9.375                  54.375                      45
   159   1      7.5000000000000009                    52.5                   48.75
   160   1      7.5000000000000009                  54.375      50.625000000000007
   161   1                   9.375                    52.5      50.625000000000007
   162   1                   9.375                  54.375                   48.75
   163   1      7.5000000000000009                    52.5                    52.5
   164   1      7.5000000000000009                  54.375                  54.375
   165   1                   9.375                    52.5                  54.375
   166   1                   9.375                  54.375                    52.5
   167   1      7.5000000000000009                    52.5      56.250000000000007
   168   1      7.5000000000000009                  54.375      58.125000000000007
   169   1                   9.375                    52.5      58.125000000000007
   170   1                   9.375                  54.375      56.250000000000007
   171   1      7.5000000000000009                    52.5      60.000000000000007
   172   1      7.5000000000000009                  54.375      61.875000000000007
   173   1                   9.375                    52.5      61.875000000000007
   174   1                   9.375                  54.375      60.000000000000007
   175   1                   9.375                    52.5                  65.625
   176   1                   9.375                  54.375      63.750000000000007
   177   1                   9.375      56.250000000000007      39.375000000000007
   178   1      7.5000000000000009      58.125000000000007                  43.125
   179   1                   9.375      56.250000000000007                  43.125
   180   1                   9.375      58.125000000000007                   41.25
   181   1      7.5000000000000009      56.250000000000007                      45
   182   1      7.5000000000000009      58.125000000000007                  46.875
   183   1                   9.375      56.250000000000007                  46.875
   184   1                   9.375      58.125000000000007                      45
   185   1      7.5000000000000009      56.250000000000007                   48.75
   186   1      7.5000000000000009      58.125000000000007      50.625000000000007
   187   1                   9.375      56.250000000000007      50.625000000000007
   188   1                   9.375      58.125000000000007                   48.75
   189   1      7.5000000000000009      56.250000000000007                    52.5
   190   1      7.5000000000000009      58.125000000000007                  54.375
   191   1                   9.375      56.250000000000007                  54.375
   192   1                   9.375      58.125000000000007                    52.5
   193   1      7.5000000000000009      56.250000000000007      56.250000000000007
   194   1      7.5000000000000009      58.125000000000007      58.125000000000007
   195   1                   9.375      56.250000000000007      58.125000000000007
   196   1                   9.375      58.125000000000007      56.250000000000007
   197   1      7.5000000000000009      56.250000000000007      60.000000000000007
   198   1      7.5000000000000009      58.125000000000007      61.875000000000007
   199   1                   9.375      56.250000000000007      61.875000000000007
   200   1                   9.375      58.125000000000007      60.000000000000007
   201   1                   9.375      56.250000000000007                  65.625
   202   1                   9.375      58.125000000000007      63.750000000000007
   203   1                   9.375      60.000000000000007      39.375000000000007
   204   1      7.5000000000000009      61.875000000000007                  43.125
   205   1                   9.375      60.000000000000007                  43.125
   206   1                   9.375      61.875000000000007                   41.25
   207   1      7.5000000000000009      60.000000000000007                      45
   208   1      7.5000000000000009      61.875000000000007                  46.875
   209   1                   9.375      60.000000000000007                  46.875
   210   1                   9.375      61.875000000000007                      45
   211   1      7.5000000000000009      60.000000000000007                   48.75
   212   1      7.5000000000000009      61.875000000000007      50.625000000000007
   213   1                   9.375      60.000000000000007      50.625000000000007
   214   1                   9.375      61.875000000000007                   48.75
   215   1      7.5000000000000009      60.000000000000007                    52.5
   216   1      7.5000000000000009      61.875000000000007                  54.375
   217   1                   9.375      60.000000000000007                  54.375
   218   1                   9.375      61.875000000000007                    52.5
   219   1      7.5000000000000009      60.000000000000007      56.250000000000007
   220   1      7.5000000000000009      61.875000000000007      58.125000000000007
   221   1                   9.375      60.000000000000007      58.125000000000007
   222   1                   9.375      61.875000000000007      56.250000000000007
   223   1      7.5000000000000009      60.000000000000007      60.000000000000007
   224   1      7.5000000000000009      61.875000000000007      61.875000000000007
   225   1                   9.375      60.000000000000007      61.875000000000007
   226   1                   9.375      61.875000000000007      60.000000000000007
   227   1                   9.375      60.000000000000007                  65.625
   228   1                   9.375      61.875000000000007      63.750000000000007
   229   1                   9.375      63.750000000000007      39.375000000000007
   230   1                   9.375      63.750000000000007                  43.125
   231   1                   9.375                  65.625                   41.25
   232   1                   9.375      63.750000000000007                  46.875
   233   1                   9.375                  65.625                      45
   234   1                   9.375      63.750000000000007      50.625000000000007
   235   1                   9.375                  65.625                   48.75
   236   1                   9.375      63.750000000000007                  54.375
   237   1                   9.375                  65.625                    52.5
   238   1                   9.375      63.750000000000007      58.125000000000007
   239   1                   9.375                  65.625      56.250000000000007
   240   1                   9.375      63.750000000000007      61.875000000000007
   241   1                   9.375                  65.625      60.000000000000007
   242   1                   9.375      63.750000000000007                  65.625
   243   1                   9.375                  65.625      63.750000000000007
   244   1                  13.125                  35.625                    37.5
   245   1                  13.125                  35.625                   41.25
   246   1                  13.125                  35.625                      45
   247   1                  13.125                  35.625                   48.75
   248   1                  13.125                  35.625                    52.5
   249   1                  13.125                  35.625      56.250000000000007
   250   1                  13.125                  35.625      60.000000000000007
   251   1                  13.125                  35.625      63.750000000000007
   252   1                  13.125                  35.625                    67.5
   253   1                  13.125                    37.5                  35.625
   254   1                   11.25                    37.5                    37.5
   255   1                   11.25      39.375000000000007      39.375000000000007
   256   1                  13.125                    37.5      39.375000000000007
   257   1                  13.125      39.375000000000007                    37.5
   258   1                   11.25                    37.5                   41.25
   259   1                   11.25      39.375000000000007                  43.125
   260   1                  13.125                    37.5                  43.125
   261   1                  13.125      39.375000000000007                   41.25
   262   1                   11.25                    37.5                      45
   263   1                   11.25      39.375000000000007                  46.875
   264   1                  13.125                    37.5                  46.875
   265   1                  13.125      39.375000000000007                      45
   266   1                   11.25                    37.5                   48.75
   267   1                   11.25      39.375000000000007      50.625000000000007
   268   1                  13.125                    37.5      50.625000000000007
   269   1                  13.125      39.375000000000007                   48.75
   270   1                   11.25                    37.5                    52.5
   271   1                   11.25      39.375000000000007                  54.375
   272   1                  13.125                    37.5                  54.375
   273   1                  13.125      39.375000000000007                    52.5
   274   1                   11.25                    37.5      56.250000000000007
   275   1                   11.25      39.375000000000007      58.125000000000007
   276   1                  13.125                    37.5      58.125000000000007
   277   1                  13.125      39.375000000000007      56.250000000000007
   278   1                   11.25                    37.5      60.000000000000007
   279   1                   11.25      39.375000000000007      61.875000000000007
   280   1                  13.125                    37.5      61.875000000000007
   281   1                  13.125      39.375000000000007      60.000000000000007
   282   1                   11.25                    37.5      63.750000000000007
   283   1                   11.25      39.375000000000007                  65.625
   284   1                  13.125                    37.5                  65.625
   285   1                  13.125      39.375000000000007      63.750000000000007
   286   1                   11.25                    37.5                    67.5
   287   1                  13.125                    37.5                  69.375
   288   1                  13.125      39.375000000000007                    67.5
   289   1                  13.125                   41.25                  35.625
   290   1                   11.25                   41.25                    37.5
   291   1                   11.25                  43.125      39.375000000000007
   292   1                  13.125                   41.25      39.375000000000007
   293   1                  13.125                  43.125                    37.5
   294   1                   11.25                   41.25                   41.25
   295   1                   11.25                  43.125                  43.125
   296   1                  13.125                   41.25                  43.125
   297   1                  13.125                  43.125                   41.25
   298   1                   11.25                   41.25                      45
   299   1                   11.25                  43.125                  46.875
   300   1                  13.125                   41.25                  46.875
   301   1                  13.125                  43.125                      45
   302   1                   11.25                   41.25                   48.75
   303   1                   11.25                  43.125      50.625000000000007
   304   1                  13.125                   41.25      50.625000000000007
   305   1                  13.125                  43.125                   48.75
   306   1                   11.25                   41.25                    52.5
   307   1                   11.25                  43.125                  54.375
   308   1                  13.125                   41.25                  54.375
   309   1                  13.125                  43.125                    52.5
   310   1                   11.25                   41.25      56.250000000000007
   311   1                   11.25                  43.125      58.125000000000007
   312   1                  13.125                   41.25      58.125000000000007
   313   1                  13.125                  43.125      56.250000000000007
   314   1                   11.25                   41.25      60.000000000000007
   315   1                   11.25                  43.125      61.875000000000007
   316   1                  13.125                   41.25      61.875000000000007
   317   1                  13.125                  43.125      60.000000000000007
   318   1                   11.25                   41.25      63.750000000000007
   319   1                   11.25                  43.125                  65.625
   320   1                  13.125                   41.25                  65.625
   321   1                  13.125                  43.125      63.750000000000007
   322   1                   11.25                   41.25                    67.5
   323   1                  13.125                   41.25                  69.375
   324   1                  13.125                  43.125                    67.5
   325   1                  13.125                      45                  35.625
   326   1                   11.25                      45                    37.5
   327   1                   11.25                  46.875      39.375000000000007
   328   1                  13.125                      45      39.375000000000007
   329   1                  13.125                  46.875                    37.5
   330   1                   11.25                      45                   41.25
   331   1                   11.25                  46.875                  43.125
   332   1                  13.125                      45                  43.125
   333   1                  13.125                  46.875                   41.25
   334   1                   11.25                      45                      45
   335   1                   11.25                  46.875                  46.875
   336   1                  13.125                      45                  46.875
   337   1                  13.125                  46.875                      45
   338   1                   11.25                      45                   48.75
   339   1                   11.25                  46.875      50.625000000000007
   340   1                  13.125                      45      50.625000000000007
   341   1                  13.125                  46.875                   48.75
   342   1                   11.25                      45                    52.5
   343   1                   11.25                  46.875                  54.375
   344   1                  13.125                      45                  54.375
   345   1                  13.125                  46.875                    52.5
   346   1                   11.25                      45      56.250000000000007
   347   1                   11.25                  46.875      58.125000000000007
   348   1                  13.125                      45      58.125000000000007
   349   1                  13.125                  46.875      56.250000000000007
   350   1                   11.25                      45      60.000000000000007
   351   1                   11.25                  46.875      61.875000000000007
   352   1                  13.125                      45      61.875000000000007
   353   1                  13.125                  46.875      60.000000000000007
   354   1                   11.25                      45      63.750000000000007
   355   1                   11.25                  46.875                  65.625
   356   1                  13.125                      45                  65.625
   357   1                  13.125                  46.875      63.750000000000007
   358   1                   11.25                      45                    67.5