model_files/PdNi/PdNi_30000/PdNi_310/PdNi_310_fcc_30527_temp.data (written by ASE) 

30527 	 atoms 
2  atom types
0.0                      87  xlo xhi
0.0                      87  ylo yhi
0.0                      87  zlo zhi


Atoms 

     1   1      86.999999999999986       39.11249999999999      40.974999999999987
     2   1      86.999999999999986      40.974999999999987       39.11249999999999
     3   1      86.999999999999986       39.11249999999999      44.699999999999996
     4   1      86.999999999999986      40.974999999999987      42.837499999999991
     5   1      86.999999999999986      40.974999999999987      46.562499999999993
     6   1      86.999999999999986      42.837499999999991      40.974999999999987
     7   1      86.999999999999986      44.699999999999996       39.11249999999999
     8   1      86.999999999999986      42.837499999999991      44.699999999999996
     9   1      86.999999999999986      44.699999999999996      42.837499999999991
    10   1      86.999999999999986      44.699999999999996      46.562499999999993
    11   1      86.999999999999986      46.562499999999993      40.974999999999987
    12   1      86.999999999999986      46.562499999999993      44.699999999999996
    13   1      3.7249999999999872      27.937499999999986       29.79999999999999
    14   1      3.7249999999999872       29.79999999999999      27.937499999999986
    15   1      3.7249999999999872      27.937499999999986      33.524999999999984
    16   1      3.7249999999999872       29.79999999999999      31.662499999999987
    17   1      3.7249999999999872      27.937499999999986      37.249999999999986
    18   1      3.7249999999999872       29.79999999999999      35.387499999999989
    19   1      3.7249999999999872      27.937499999999986      40.974999999999987
    20   1      3.7249999999999872       29.79999999999999       39.11249999999999
    21   1      3.7249999999999872      27.937499999999986      44.699999999999996
    22   1      3.7249999999999872       29.79999999999999      42.837499999999991
    23   1      3.7249999999999872      27.937499999999986      48.424999999999983
    24   1      3.7249999999999872       29.79999999999999      46.562499999999993
    25   1      3.7249999999999872      27.937499999999986      52.149999999999977
    26   1      3.7249999999999872       29.79999999999999      50.287499999999987
    27   1      3.7249999999999872      27.937499999999986      55.874999999999986
    28   1      3.7249999999999872       29.79999999999999      54.012499999999989
    29   1      3.7249999999999872       29.79999999999999      57.737499999999983
    30   1      3.7249999999999872      31.662499999999987       29.79999999999999
    31   1      3.7249999999999872      33.524999999999984      27.937499999999986
    32   1      1.8624999999999898      33.524999999999984      33.524999999999984
    33   1      3.7249999999999872      31.662499999999987      33.524999999999984
    34   1      3.7249999999999872      33.524999999999984      31.662499999999987
    35   1      1.8624999999999898      33.524999999999984      37.249999999999986
    36   1      3.7249999999999872      31.662499999999987      37.249999999999986
    37   1      3.7249999999999872      33.524999999999984      35.387499999999989
    38   1      1.8624999999999898      33.524999999999984      40.974999999999987
    39   1      3.7249999999999872      31.662499999999987      40.974999999999987
    40   1      3.7249999999999872      33.524999999999984       39.11249999999999
    41   1      1.8624999999999898      33.524999999999984      44.699999999999996
    42   1      3.7249999999999872      31.662499999999987      44.699999999999996
    43   1      3.7249999999999872      33.524999999999984      42.837499999999991
    44   1      1.8624999999999898      33.524999999999984      48.424999999999983
    45   1      3.7249999999999872      31.662499999999987      48.424999999999983
    46   1      3.7249999999999872      33.524999999999984      46.562499999999993
    47   1      1.8624999999999898      33.524999999999984      52.149999999999977
    48   1      3.7249999999999872      31.662499999999987      52.149999999999977
    49   1      3.7249999999999872      33.524999999999984      50.287499999999987
    50   1      3.7249999999999872      31.662499999999987      55.874999999999986
    51   1      3.7249999999999872      33.524999999999984      54.012499999999989
    52   1      3.7249999999999872      33.524999999999984      57.737499999999983
    53   1      3.7249999999999872      35.387499999999989       29.79999999999999
    54   1      3.7249999999999872      37.249999999999986      27.937499999999986
    55   1      1.8624999999999898      37.249999999999986      33.524999999999984
    56   1      3.7249999999999872      35.387499999999989      33.524999999999984
    57   1      3.7249999999999872      37.249999999999986      31.662499999999987
    58   1      1.8624999999999898      35.387499999999989      35.387499999999989
    59   1      1.8624999999999898      37.249999999999986      37.249999999999986
    60   1      3.7249999999999872      35.387499999999989      37.249999999999986
    61   1      3.7249999999999872      37.249999999999986      35.387499999999989
    62   1      1.8624999999999898      35.387499999999989       39.11249999999999
    63   1      1.8624999999999898      37.249999999999986      40.974999999999987
    64   1      3.7249999999999872      35.387499999999989      40.974999999999987
    65   1      3.7249999999999872      37.249999999999986       39.11249999999999
    66   1      1.8624999999999898      35.387499999999989      42.837499999999991
    67   1      1.8624999999999898      37.249999999999986      44.699999999999996
    68   1      3.7249999999999872      35.387499999999989      44.699999999999996
    69   1      3.7249999999999872      37.249999999999986      42.837499999999991
    70   1      1.8624999999999898      35.387499999999989      46.562499999999993
    71   1      1.8624999999999898      37.249999999999986      48.424999999999983
    72   1      3.7249999999999872      35.387499999999989      48.424999999999983
    73   1      3.7249999999999872      37.249999999999986      46.562499999999993
    74   1      1.8624999999999898      35.387499999999989      50.287499999999987
    75   1      1.8624999999999898      37.249999999999986      52.149999999999977
    76   1      3.7249999999999872      35.387499999999989      52.149999999999977
    77   1      3.7249999999999872      37.249999999999986      50.287499999999987
    78   1      3.7249999999999872      35.387499999999989      55.874999999999986
    79   1      3.7249999999999872      37.249999999999986      54.012499999999989
    80   1      3.7249999999999872      37.249999999999986      57.737499999999983
    81   1      3.7249999999999872       39.11249999999999       29.79999999999999
    82   1      3.7249999999999872      40.974999999999987      27.937499999999986
    83   1      1.8624999999999898      40.974999999999987      33.524999999999984
    84   1      3.7249999999999872       39.11249999999999      33.524999999999984
    85   1      3.7249999999999872      40.974999999999987      31.662499999999987
    86   1      1.8624999999999898       39.11249999999999      35.387499999999989
    87   1      1.8624999999999898      40.974999999999987      37.249999999999986
    88   1      3.7249999999999872       39.11249999999999      37.249999999999986
    89   1      3.7249999999999872      40.974999999999987      35.387499999999989
    90   1      1.8624999999999898       39.11249999999999       39.11249999999999
    91   1      1.8624999999999898      40.974999999999987      40.974999999999987
    92   1      3.7249999999999872       39.11249999999999      40.974999999999987
    93   1      3.7249999999999872      40.974999999999987       39.11249999999999
    94   1      1.8624999999999898       39.11249999999999      42.837499999999991
    95   1      1.8624999999999898      40.974999999999987      44.699999999999996
    96   1      3.7249999999999872       39.11249999999999      44.699999999999996
    97   1      3.7249999999999872      40.974999999999987      42.837499999999991
    98   1      1.8624999999999898       39.11249999999999      46.562499999999993
    99   1      1.8624999999999898      40.974999999999987      48.424999999999983
   100   1      3.7249999999999872       39.11249999999999      48.424999999999983
   101   1      3.7249999999999872      40.974999999999987      46.562499999999993
   102   1      1.8624999999999898       39.11249999999999      50.287499999999987
   103   1      1.8624999999999898      40.974999999999987      52.149999999999977
   104   1      3.7249999999999872       39.11249999999999      52.149999999999977
   105   1      3.7249999999999872      40.974999999999987      50.287499999999987
   106   1      3.7249999999999872       39.11249999999999      55.874999999999986
   107   1      3.7249999999999872      40.974999999999987      54.012499999999989
   108   1      3.7249999999999872      40.974999999999987      57.737499999999983
   109   1      3.7249999999999872      42.837499999999991       29.79999999999999
   110   1      3.7249999999999872      44.699999999999996      27.937499999999986
   111   1      1.8624999999999898      44.699999999999996      33.524999999999984
   112   1      3.7249999999999872      42.837499999999991      33.524999999999984
   113   1      3.7249999999999872      44.699999999999996      31.662499999999987
   114   1      1.8624999999999898      42.837499999999991      35.387499999999989
   115   1      1.8624999999999898      44.699999999999996      37.249999999999986
   116   1      3.7249999999999872      42.837499999999991      37.249999999999986
   117   1      3.7249999999999872      44.699999999999996      35.387499999999989
   118   1      1.8624999999999898      42.837499999999991       39.11249999999999
   119   1      1.8624999999999898      44.699999999999996      40.974999999999987
   120   1      3.7249999999999872      42.837499999999991      40.974999999999987
   121   1      3.7249999999999872      44.699999999999996       39.11249999999999
   122   1      1.8624999999999898      42.837499999999991      42.837499999999991
   123   1      1.8624999999999898      44.699999999999996      44.699999999999996
   124   1      3.7249999999999872      42.837499999999991      44.699999999999996
   125   1      3.7249999999999872      44.699999999999996      42.837499999999991
   126   1      1.8624999999999898      42.837499999999991      46.562499999999993
   127   1      1.8624999999999898      44.699999999999996      48.424999999999983
   128   1      3.7249999999999872      42.837499999999991      48.424999999999983
   129   1      3.7249999999999872      44.699999999999996      46.562499999999993
   130   1      1.8624999999999898      42.837499999999991      50.287499999999987
   131   1      1.8624999999999898      44.699999999999996      52.149999999999977
   132   1      3.7249999999999872      42.837499999999991      52.149999999999977
   133   1      3.7249999999999872      44.699999999999996      50.287499999999987
   134   1      3.7249999999999872      42.837499999999991      55.874999999999986
   135   1      3.7249999999999872      44.699999999999996      54.012499999999989
   136   1      3.7249999999999872      44.699999999999996      57.737499999999983
   137   1      3.7249999999999872      46.562499999999993       29.79999999999999
   138   1      3.7249999999999872      48.424999999999983      27.937499999999986
   139   1      1.8624999999999898      48.424999999999983      33.524999999999984
   140   1      3.7249999999999872      46.562499999999993      33.524999999999984
   141   1      3.7249999999999872      48.424999999999983      31.662499999999987
   142   1      1.8624999999999898      46.562499999999993      35.387499999999989
   143   1      1.8624999999999898      48.424999999999983      37.249999999999986
   144   1      3.7249999999999872      46.562499999999993      37.249999999999986
   145   1      3.7249999999999872      48.424999999999983      35.387499999999989
   146   1      1.8624999999999898      46.562499999999993       39.11249999999999
   147   1      1.8624999999999898      48.424999999999983      40.974999999999987
   148   1      3.7249999999999872      46.562499999999993      40.974999999999987
   149   1      3.7249999999999872      48.424999999999983       39.11249999999999
   150   1      1.8624999999999898      46.562499999999993      42.837499999999991
   151   1      1.8624999999999898      48.424999999999983      44.699999999999996
   152   1      3.7249999999999872      46.562499999999993      44.699999999999996
   153   1      3.7249999999999872      48.424999999999983      42.837499999999991
   154   1      1.8624999999999898      46.562499999999993      46.562499999999993
   155   1      1.8624999999999898      48.424999999999983      48.424999999999983
   156   1      3.7249999999999872      46.562499999999993      48.424999999999983
   157   1      3.7249999999999872      48.424999999999983      46.562499999999993
   158   1      1.8624999999999898      46.562499999999993      50.287499999999987
   159   1      1.8624999999999898      48.424999999999983      52.149999999999977
   160   1      3.7249999999999872      46.562499999999993      52.149999999999977
   161   1      3.7249999999999872      48.424999999999983      50.287499999999987
   162   1      3.7249999999999872      46.562499999999993      55.874999999999986
   163   1      3.7249999999999872      48.424999999999983      54.012499999999989
   164   1      3.7249999999999872      48.424999999999983      57.737499999999983
   165   1      3.7249999999999872      50.287499999999987       29.79999999999999
   166   1      3.7249999999999872      52.149999999999977      27.937499999999986
   167   1      1.8624999999999898      52.149999999999977      33.524999999999984
   168   1      3.7249999999999872      50.287499999999987      33.524999999999984
   169   1      3.7249999999999872      52.149999999999977      31.662499999999987
   170   1      1.8624999999999898      50.287499999999987      35.387499999999989
   171   1      1.8624999999999898      52.149999999999977      37.249999999999986
   172   1      3.7249999999999872      50.287499999999987      37.249999999999986
   173   1      3.7249999999999872      52.149999999999977      35.387499999999989
   174   1      1.8624999999999898      50.287499999999987       39.11249999999999
   175   1      1.8624999999999898      52.149999999999977      40.974999999999987
   176   1      3.7249999999999872      50.287499999999987      40.974999999999987
   177   1      3.7249999999999872      52.149999999999977       39.11249999999999
   178   1      1.8624999999999898      50.287499999999987      42.837499999999991
   179   1      1.8624999999999898      52.149999999999977      44.699999999999996
   180   1      3.7249999999999872      50.287499999999987      44.699999999999996
   181   1      3.7249999999999872      52.149999999999977      42.837499999999991
   182   1      1.8624999999999898      50.287499999999987      46.562499999999993
   183   1      1.8624999999999898      52.149999999999977      48.424999999999983
   184   1      3.7249999999999872      50.287499999999987      48.424999999999983
   185   1      3.7249999999999872      52.149999999999977      46.562499999999993
   186   1      1.8624999999999898      50.287499999999987      50.287499999999987
   187   1      1.8624999999999898      52.149999999999977      52.149999999999977
   188   1      3.7249999999999872      50.287499999999987      52.149999999999977
   189   1      3.7249999999999872      52.149999999999977      50.287499999999987
   190   1      3.7249999999999872      50.287499999999987      55.874999999999986
   191   1      3.7249999999999872      52.149999999999977      54.012499999999989
   192   1      3.7249999999999872      52.149999999999977      57.737499999999983
   193   1      3.7249999999999872      54.012499999999989       29.79999999999999
   194   1      3.7249999999999872      55.874999999999986      27.937499999999986
   195   1      3.7249999999999872      54.012499999999989      33.524999999999984
   196   1      3.7249999999999872      55.874999999999986      31.662499999999987
   197   1      3.7249999999999872      54.012499999999989      37.249999999999986
   198   1      3.7249999999999872      55.874999999999986      35.387499999999989
   199   1      3.7249999999999872      54.012499999999989      40.974999999999987
   200   1      3.7249999999999872      55.874999999999986       39.11249999999999
   201   1      3.7249999999999872      54.012499999999989      44.699999999999996
   202   1      3.7249999999999872      55.874999999999986      42.837499999999991
   203   1      3.7249999999999872      54.012499999999989      48.424999999999983
   204   1      3.7249999999999872      55.874999999999986      46.562499999999993
   205   1      3.7249999999999872      54.012499999999989      52.149999999999977
   206   1      3.7249999999999872      55.874999999999986      50.287499999999987
   207   1      3.7249999999999872      54.012499999999989      55.874999999999986
   208   1      3.7249999999999872      55.874999999999986      54.012499999999989
   209   1      3.7249999999999872      55.874999999999986      57.737499999999983
   210   1      3.7249999999999872      57.737499999999983       29.79999999999999
   211   1      3.7249999999999872      57.737499999999983      33.524999999999984
   212   1      3.7249999999999872      57.737499999999983      37.249999999999986
   213   1      3.7249999999999872      57.737499999999983      40.974999999999987
   214   1      3.7249999999999872      57.737499999999983      44.699999999999996
   215   1      3.7249999999999872      57.737499999999983      48.424999999999983
   216   1      3.7249999999999872      57.737499999999983      52.149999999999977
   217   1      3.7249999999999872      57.737499999999983      55.874999999999986
   218   1      7.4499999999999886      16.762499999999989      18.624999999999989
   219   1      7.4499999999999886      18.624999999999989      16.762499999999989
   220   1      7.4499999999999886      16.762499999999989      22.349999999999991
   221   1      7.4499999999999886      18.624999999999989       20.48749999999999
   222   1      7.4499999999999886      16.762499999999989      26.074999999999989
   223   1      7.4499999999999886      18.624999999999989      24.212499999999988
   224   1      7.4499999999999886      16.762499999999989       29.79999999999999
   225   1      7.4499999999999886      18.624999999999989      27.937499999999986
   226   1      7.4499999999999886      16.762499999999989      33.524999999999984
   227   1      7.4499999999999886      18.624999999999989      31.662499999999987
   228   1      7.4499999999999886      16.762499999999989      37.249999999999986
   229   1      7.4499999999999886      18.624999999999989      35.387499999999989
   230   1      7.4499999999999886      16.762499999999989      40.974999999999987
   231   1      7.4499999999999886      18.624999999999989       39.11249999999999
   232   1      7.4499999999999886      16.762499999999989      44.699999999999996
   233   1      7.4499999999999886      18.624999999999989      42.837499999999991
   234   1      7.4499999999999886      16.762499999999989      48.424999999999983
   235   1      7.4499999999999886      18.624999999999989      46.562499999999993
   236   1      7.4499999999999886      16.762499999999989      52.149999999999977
   237   1      7.4499999999999886      18.624999999999989      50.287499999999987
   238   1      7.4499999999999886      16.762499999999989      55.874999999999986
   239   1      7.4499999999999886      18.624999999999989      54.012499999999989
   240   1      7.4499999999999886      16.762499999999989      59.599999999999987
   241   1      7.4499999999999886      18.624999999999989      57.737499999999983
   242   1      7.4499999999999886      16.762499999999989      63.324999999999989
   243   1      7.4499999999999886      18.624999999999989      61.462499999999991
   244   1      7.4499999999999886      16.762499999999989      67.049999999999983
   245   1      7.4499999999999886      18.624999999999989      65.187499999999986
   246   1      7.4499999999999886      18.624999999999989      68.912499999999994
   247   1      7.4499999999999886       20.48749999999999      18.624999999999989
   248   1      7.4499999999999886      22.349999999999991      16.762499999999989
   249   1      5.5874999999999915      22.349999999999991      22.349999999999991
   250   1      7.4499999999999886       20.48749999999999      22.349999999999991
   251   1      7.4499999999999886      22.349999999999991       20.48749999999999
   252   1      5.5874999999999915      22.349999999999991      26.074999999999989
   253   1      7.4499999999999886       20.48749999999999      26.074999999999989
   254   1      7.4499999999999886      22.349999999999991      24.212499999999988
   255   1      5.5874999999999915      22.349999999999991       29.79999999999999
   256   1      7.4499999999999886       20.48749999999999       29.79999999999999
   257   1      7.4499999999999886      22.349999999999991      27.937499999999986
   258   1      5.5874999999999915      22.349999999999991      33.524999999999984
   259   1      7.4499999999999886       20.48749999999999      33.524999999999984
   260   1      7.4499999999999886      22.349999999999991      31.662499999999987
   261   1      5.5874999999999915      22.349999999999991      37.249999999999986
   262   1      7.4499999999999886       20.48749999999999      37.249999999999986
   263   1      7.4499999999999886      22.349999999999991      35.387499999999989
   264   1      5.5874999999999915      22.349999999999991      40.974999999999987
   265   1      7.4499999999999886       20.48749999999999      40.974999999999987
   266   1      7.4499999999999886      22.349999999999991       39.11249999999999
   267   1      5.5874999999999915      22.349999999999991      44.699999999999996
   268   1      7.4499999999999886       20.48749999999999      44.699999999999996
   269   1      7.4499999999999886      22.349999999999991      42.837499999999991
   270   1      5.5874999999999915      22.349999999999991      48.424999999999983
   271   1      7.4499999999999886       20.48749999999999      48.424999999999983
   272   1      7.4499999999999886      22.349999999999991      46.562499999999993
   273   1      5.5874999999999915      22.349999999999991      52.149999999999977
   274   1      7.4499999999999886       20.48749999999999      52.149999999999977
   275   1      7.4499999999999886      22.349999999999991      50.287499999999987
   276   1      5.5874999999999915      22.349999999999991      55.874999999999986
   277   1      7.4499999999999886       20.48749999999999      55.874999999999986
   278   1      7.4499999999999886      22.349999999999991      54.012499999999989
   279   1      5.5874999999999915      22.349999999999991      59.599999999999987
   280   1      7.4499999999999886       20.48749999999999      59.599999999999987
   281   1      7.4499999999999886      22.349999999999991      57.737499999999983
   282   1      5.5874999999999915      22.349999999999991      63.324999999999989
   283   1      7.4499999999999886       20.48749999999999      63.324999999999989
   284   1      7.4499999999999886      22.349999999999991      61.462499999999991
   285   1      7.4499999999999886       20.48749999999999      67.049999999999983
   286   1      7.4499999999999886      22.349999999999991      65.187499999999986
   287   1      7.4499999999999886      22.349999999999991      68.912499999999994
   288   1      7.4499999999999886      24.212499999999988      18.624999999999989
   289   1      7.4499999999999886      26.074999999999989      16.762499999999989
   290   1      5.5874999999999915      26.074999999999989      22.349999999999991
   291   1      7.4499999999999886      24.212499999999988      22.349999999999991
   292   1      7.4499999999999886      26.074999999999989       20.48749999999999
   293   1      5.5874999999999915      24.212499999999988      24.212499999999988
   294   1      5.5874999999999915      26.074999999999989      26.074999999999989
   295   1      7.4499999999999886      24.212499999999988      26.074999999999989
   296   1      7.4499999999999886      26.074999999999989      24.212499999999988
   297   1      5.5874999999999915      24.212499999999988      27.937499999999986
   298   1      5.5874999999999915      26.074999999999989       29.79999999999999
   299   1      7.4499999999999886      24.212499999999988       29.79999999999999
   300   1      7.4499999999999886      26.074999999999989      27.937499999999986
   301   1      5.5874999999999915      24.212499999999988      31.662499999999987
   302   1      5.5874999999999915      26.074999999999989      33.524999999999984
   303   1      7.4499999999999886      24.212499999999988      33.524999999999984
   304   1      7.4499999999999886      26.074999999999989      31.662499999999987
   305   1      5.5874999999999915      24.212499999999988      35.387499999999989
   306   1      5.5874999999999915      26.074999999999989      37.249999999999986
   307   1      7.4499999999999886      24.212499999999988      37.249999999999986
   308   1      7.4499999999999886      26.074999999999989      35.387499999999989
   309   1      5.5874999999999915      24.212499999999988       39.11249999999999
   310   1      5.5874999999999915      26.074999999999989      40.974999999999987
   311   1      7.4499999999999886      24.212499999999988      40.974999999999987
   312   1      7.4499999999999886      26.074999999999989       39.11249999999999
   313   1      5.5874999999999915      24.212499999999988      42.837499999999991
   314   1      5.5874999999999915      26.074999999999989      44.699999999999996
   315   1      7.4499999999999886      24.212499999999988      44.699999999999996
   316   1      7.4499999999999886      26.074999999999989      42.837499999999991
   317   1      5.5874999999999915      24.212499999999988      46.562499999999993
   318   1      5.5874999999999915      26.074999999999989      48.424999999999983
   319   1      7.4499999999999886      24.212499999999988      48.424999999999983
   320   1      7.4499999999999886      26.074999999999989      46.562499999999993
   321   1      5.5874999999999915      24.212499999999988      50.287499999999987
   322   1      5.5874999999999915      26.074999999999989      52.149999999999977
   323   1      7.4499999999999886      24.212499999999988      52.149999999999977
   324   1      7.4499999999999886      26.074999999999989      50.287499999999987
   325   1      5.5874999999999915      24.212499999999988      54.012499999999989
   326   1      5.5874999999999915      26.074999999999989      55.874999999999986
   327   1      7.4499999999999886      24.212499999999988      55.874999999999986
   328   1      7.4499999999999886      26.074999999999989      54.012499999999989
   329   1      5.5874999999999915      24.212499999999988      57.737499999999983
   330   1      5.5874999999999915      26.074999999999989      59.599999999999987
   331   1      7.4499999999999886      24.212499999999988      59.599999999999987
   332   1      7.4499999999999886      26.074999999999989      57.737499999999983
   333   1      5.5874999999999915      24.212499999999988      61.462499999999991
   334   1      5.5874999999999915      26.074999999999989      63.324999999999989
   335   1      7.4499999999999886      24.212499999999988      63.324999999999989
   336   1      7.4499999999999886      26.074999999999989      61.462499999999991
   337   1      7.4499999999999886      24.212499999999988      67.049999999999983
   338   1      7.4499999999999886      26.074999999999989      65.187499999999986
   339   1      7.4499999999999886      26.074999999999989      68.912499999999994
   340   1      7.4499999999999886      27.937499999999986      18.624999999999989
   341   1      7.4499999999999886       29.79999999999999      16.762499999999989
   342   1      5.5874999999999915       29.79999999999999      22.349999999999991
   343   1      7.4499999999999886      27.937499999999986      22.349999999999991
   344   1      7.4499999999999886       29.79999999999999       20.48749999999999
   345   1      5.5874999999999915      27.937499999999986      24.212499999999988
   346   1      5.5874999999999915       29.79999999999999      26.074999999999989
   347   1      7.4499999999999886      27.937499999999986      26.074999999999989
   348   1      7.4499999999999886       29.79999999999999      24.212499999999988
   349   1      5.5874999999999915      27.937499999999986      27.937499999999986
   350   1      5.5874999999999915       29.79999999999999       29.79999999999999
   351   1      7.4499999999999886      27.937499999999986       29.79999999999999
   352   1      7.4499999999999886       29.79999999999999      27.937499999999986
   353   1      5.5874999999999915      27.937499999999986      31.662499999999987
   354   1      5.5874999999999915       29.79999999999999      33.524999999999984
   355   1      7.4499999999999886      27.937499999999986      33.524999999999984
   356   1      7.4499999999999886       29.79999999999999      31.662499999999987
   357   1      5.5874999999999915      27.937499999999986      35.387499999999989
   358   1      5.5874999999999915       29.79999999999999      37.249999999999986