model_files/Co/Co_3000/Co_100/data.Co_100_hcp_3429 (written by ASE) 

3429 	 atoms 
1  atom types
0.0                      22  xlo xhi
0.0                      22  ylo yhi
0.0                      22  zlo zhi


Atoms 

     1   1      21.999999999999996      21.999999999999996      1.2549999999999972
     2   1      21.999999999999996      21.999999999999996       3.764999999999997
     3   1      21.999999999999996      21.999999999999996      6.2749999999999977
     4   1      21.999999999999996      21.999999999999996      8.7849999999999966
     5   1      21.999999999999996      21.999999999999996      11.294999999999995
     6   1      21.999999999999996      21.999999999999996      13.804999999999996
     7   1      21.999999999999996      21.999999999999996      16.314999999999998
     8   1      21.999999999999996      21.999999999999996      18.824999999999996
     9   1      21.999999999999996      21.999999999999996      21.334999999999994
    10   1      21.999999999999996      1.2549999999999972      21.999999999999996
    11   1      21.999999999999996      1.2549999999999972      2.5099999999999962
    12   1      21.999999999999996      2.5099999999999962      1.2549999999999972
    13   1      21.999999999999996      1.2549999999999972      5.0199999999999969
    14   1      21.999999999999996      2.5099999999999962       3.764999999999997
    15   1      21.999999999999996      1.2549999999999972      7.5299999999999976
    16   1      21.999999999999996      2.5099999999999962      6.2749999999999977
    17   1      21.999999999999996      1.2549999999999972      10.039999999999996
    18   1      21.999999999999996      2.5099999999999962      8.7849999999999966
    19   1      21.999999999999996      1.2549999999999972      12.549999999999997
    20   1      21.999999999999996      2.5099999999999962      11.294999999999995
    21   1      21.999999999999996      1.2549999999999972      15.059999999999995
    22   1      21.999999999999996      2.5099999999999962      13.804999999999996
    23   1      21.999999999999996      1.2549999999999972      17.569999999999997
    24   1      21.999999999999996      2.5099999999999962      16.314999999999998
    25   1      21.999999999999996      1.2549999999999972      20.079999999999995
    26   1      21.999999999999996      2.5099999999999962      18.824999999999996
    27   1      21.999999999999996      1.2549999999999972     0.58999999999999098
    28   1      21.999999999999996      2.5099999999999962      21.334999999999994
    29   1      21.999999999999996       3.764999999999997      21.999999999999996
    30   1      21.999999999999996       3.764999999999997      2.5099999999999962
    31   1      21.999999999999996      5.0199999999999969      1.2549999999999972
    32   1      21.999999999999996       3.764999999999997      5.0199999999999969
    33   1      21.999999999999996      5.0199999999999969       3.764999999999997
    34   1      21.999999999999996       3.764999999999997      7.5299999999999976
    35   1      21.999999999999996      5.0199999999999969      6.2749999999999977
    36   1      21.999999999999996       3.764999999999997      10.039999999999996
    37   1      21.999999999999996      5.0199999999999969      8.7849999999999966
    38   1      21.999999999999996       3.764999999999997      12.549999999999997
    39   1      21.999999999999996      5.0199999999999969      11.294999999999995
    40   1      21.999999999999996       3.764999999999997      15.059999999999995
    41   1      21.999999999999996      5.0199999999999969      13.804999999999996
    42   1      21.999999999999996       3.764999999999997      17.569999999999997
    43   1      21.999999999999996      5.0199999999999969      16.314999999999998
    44   1      21.999999999999996       3.764999999999997      20.079999999999995
    45   1      21.999999999999996      5.0199999999999969      18.824999999999996
    46   1      21.999999999999996       3.764999999999997     0.58999999999999098
    47   1      21.999999999999996      5.0199999999999969      21.334999999999994
    48   1      21.999999999999996      6.2749999999999977      21.999999999999996
    49   1      21.999999999999996      6.2749999999999977      2.5099999999999962
    50   1      21.999999999999996      7.5299999999999976      1.2549999999999972
    51   1      21.999999999999996      6.2749999999999977      5.0199999999999969
    52   1      21.999999999999996      7.5299999999999976       3.764999999999997
    53   1      21.999999999999996      6.2749999999999977      7.5299999999999976
    54   1      21.999999999999996      7.5299999999999976      6.2749999999999977
    55   1      21.999999999999996      6.2749999999999977      10.039999999999996
    56   1      21.999999999999996      7.5299999999999976      8.7849999999999966
    57   1      21.999999999999996      6.2749999999999977      12.549999999999997
    58   1      21.999999999999996      7.5299999999999976      11.294999999999995
    59   1      21.999999999999996      6.2749999999999977      15.059999999999995
    60   1      21.999999999999996      7.5299999999999976      13.804999999999996
    61   1      21.999999999999996      6.2749999999999977      17.569999999999997
    62   1      21.999999999999996      7.5299999999999976      16.314999999999998
    63   1      21.999999999999996      6.2749999999999977      20.079999999999995
    64   1      21.999999999999996      7.5299999999999976      18.824999999999996
    65   1      21.999999999999996      6.2749999999999977     0.58999999999999098
    66   1      21.999999999999996      7.5299999999999976      21.334999999999994
    67   1      21.999999999999996      8.7849999999999966      21.999999999999996
    68   1      21.999999999999996      8.7849999999999966      2.5099999999999962
    69   1      21.999999999999996      10.039999999999996      1.2549999999999972
    70   1      21.999999999999996      8.7849999999999966      5.0199999999999969
    71   1      21.999999999999996      10.039999999999996       3.764999999999997
    72   1      21.999999999999996      8.7849999999999966      7.5299999999999976
    73   1      21.999999999999996      10.039999999999996      6.2749999999999977
    74   1      21.999999999999996      8.7849999999999966      10.039999999999996
    75   1      21.999999999999996      10.039999999999996      8.7849999999999966
    76   1      21.999999999999996      8.7849999999999966      12.549999999999997
    77   1      21.999999999999996      10.039999999999996      11.294999999999995
    78   1      21.999999999999996      8.7849999999999966      15.059999999999995
    79   1      21.999999999999996      10.039999999999996      13.804999999999996
    80   1      21.999999999999996      8.7849999999999966      17.569999999999997
    81   1      21.999999999999996      10.039999999999996      16.314999999999998
    82   1      21.999999999999996      8.7849999999999966      20.079999999999995
    83   1      21.999999999999996      10.039999999999996      18.824999999999996
    84   1      21.999999999999996      8.7849999999999966     0.58999999999999098
    85   1      21.999999999999996      10.039999999999996      21.334999999999994
    86   1      21.999999999999996      11.294999999999995      21.999999999999996
    87   1      21.999999999999996      11.294999999999995      2.5099999999999962
    88   1      21.999999999999996      12.549999999999997      1.2549999999999972
    89   1      21.999999999999996      11.294999999999995      5.0199999999999969
    90   1      21.999999999999996      12.549999999999997       3.764999999999997
    91   1      21.999999999999996      11.294999999999995      7.5299999999999976
    92   1      21.999999999999996      12.549999999999997      6.2749999999999977
    93   1      21.999999999999996      11.294999999999995      10.039999999999996
    94   1      21.999999999999996      12.549999999999997      8.7849999999999966
    95   1      21.999999999999996      11.294999999999995      12.549999999999997
    96   1      21.999999999999996      12.549999999999997      11.294999999999995
    97   1      21.999999999999996      11.294999999999995      15.059999999999995
    98   1      21.999999999999996      12.549999999999997      13.804999999999996
    99   1      21.999999999999996      11.294999999999995      17.569999999999997
   100   1      21.999999999999996      12.549999999999997      16.314999999999998
   101   1      21.999999999999996      11.294999999999995      20.079999999999995
   102   1      21.999999999999996      12.549999999999997      18.824999999999996
   103   1      21.999999999999996      11.294999999999995     0.58999999999999098
   104   1      21.999999999999996      12.549999999999997      21.334999999999994
   105   1      21.999999999999996      13.804999999999996      21.999999999999996
   106   1      21.999999999999996      13.804999999999996      2.5099999999999962
   107   1      21.999999999999996      15.059999999999995      1.2549999999999972
   108   1      21.999999999999996      13.804999999999996      5.0199999999999969
   109   1      21.999999999999996      15.059999999999995       3.764999999999997
   110   1      21.999999999999996      13.804999999999996      7.5299999999999976
   111   1      21.999999999999996      15.059999999999995      6.2749999999999977
   112   1      21.999999999999996      13.804999999999996      10.039999999999996
   113   1      21.999999999999996      15.059999999999995      8.7849999999999966
   114   1      21.999999999999996      13.804999999999996      12.549999999999997
   115   1      21.999999999999996      15.059999999999995      11.294999999999995
   116   1      21.999999999999996      13.804999999999996      15.059999999999995
   117   1      21.999999999999996      15.059999999999995      13.804999999999996
   118   1      21.999999999999996      13.804999999999996      17.569999999999997
   119   1      21.999999999999996      15.059999999999995      16.314999999999998
   120   1      21.999999999999996      13.804999999999996      20.079999999999995
   121   1      21.999999999999996      15.059999999999995      18.824999999999996
   122   1      21.999999999999996      13.804999999999996     0.58999999999999098
   123   1      21.999999999999996      15.059999999999995      21.334999999999994
   124   1      21.999999999999996      16.314999999999998      21.999999999999996
   125   1      21.999999999999996      16.314999999999998      2.5099999999999962
   126   1      21.999999999999996      17.569999999999997      1.2549999999999972
   127   1      21.999999999999996      16.314999999999998      5.0199999999999969
   128   1      21.999999999999996      17.569999999999997       3.764999999999997
   129   1      21.999999999999996      16.314999999999998      7.5299999999999976
   130   1      21.999999999999996      17.569999999999997      6.2749999999999977
   131   1      21.999999999999996      16.314999999999998      10.039999999999996
   132   1      21.999999999999996      17.569999999999997      8.7849999999999966
   133   1      21.999999999999996      16.314999999999998      12.549999999999997
   134   1      21.999999999999996      17.569999999999997      11.294999999999995
   135   1      21.999999999999996      16.314999999999998      15.059999999999995
   136   1      21.999999999999996      17.569999999999997      13.804999999999996
   137   1      21.999999999999996      16.314999999999998      17.569999999999997
   138   1      21.999999999999996      17.569999999999997      16.314999999999998
   139   1      21.999999999999996      16.314999999999998      20.079999999999995
   140   1      21.999999999999996      17.569999999999997      18.824999999999996
   141   1      21.999999999999996      16.314999999999998     0.58999999999999098
   142   1      21.999999999999996      17.569999999999997      21.334999999999994
   143   1      21.999999999999996      18.824999999999996      21.999999999999996
   144   1      21.999999999999996      18.824999999999996      2.5099999999999962
   145   1      21.999999999999996      20.079999999999995      1.2549999999999972
   146   1      21.999999999999996      18.824999999999996      5.0199999999999969
   147   1      21.999999999999996      20.079999999999995       3.764999999999997
   148   1      21.999999999999996      18.824999999999996      7.5299999999999976
   149   1      21.999999999999996      20.079999999999995      6.2749999999999977
   150   1      21.999999999999996      18.824999999999996      10.039999999999996
   151   1      21.999999999999996      20.079999999999995      8.7849999999999966
   152   1      21.999999999999996      18.824999999999996      12.549999999999997
   153   1      21.999999999999996      20.079999999999995      11.294999999999995
   154   1      21.999999999999996      18.824999999999996      15.059999999999995
   155   1      21.999999999999996      20.079999999999995      13.804999999999996
   156   1      21.999999999999996      18.824999999999996      17.569999999999997
   157   1      21.999999999999996      20.079999999999995      16.314999999999998
   158   1      21.999999999999996      18.824999999999996      20.079999999999995
   159   1      21.999999999999996      20.079999999999995      18.824999999999996
   160   1      21.999999999999996      18.824999999999996     0.58999999999999098
   161   1      21.999999999999996      20.079999999999995      21.334999999999994
   162   1      21.999999999999996      21.334999999999994      21.999999999999996
   163   1      21.999999999999996      21.334999999999994      2.5099999999999962
   164   1      21.999999999999996     0.58999999999999098      1.2549999999999972
   165   1      21.999999999999996      21.334999999999994      5.0199999999999969
   166   1      21.999999999999996     0.58999999999999098       3.764999999999997
   167   1      21.999999999999996      21.334999999999994      7.5299999999999976
   168   1      21.999999999999996     0.58999999999999098      6.2749999999999977
   169   1      21.999999999999996      21.334999999999994      10.039999999999996
   170   1      21.999999999999996     0.58999999999999098      8.7849999999999966
   171   1      21.999999999999996      21.334999999999994      12.549999999999997
   172   1      21.999999999999996     0.58999999999999098      11.294999999999995
   173   1      21.999999999999996      21.334999999999994      15.059999999999995
   174   1      21.999999999999996     0.58999999999999098      13.804999999999996
   175   1      21.999999999999996      21.334999999999994      17.569999999999997
   176   1      21.999999999999996     0.58999999999999098      16.314999999999998
   177   1      21.999999999999996      21.334999999999994      20.079999999999995
   178   1      21.999999999999996     0.58999999999999098      18.824999999999996
   179   1      21.999999999999996      21.334999999999994     0.58999999999999098
   180   1      21.999999999999996     0.58999999999999098      21.334999999999994
   181   1      1.2549999999999972      21.999999999999996      21.999999999999996
   182   1      1.2549999999999972      21.999999999999996      2.5099999999999962
   183   1      2.5099999999999962      21.999999999999996      1.2549999999999972
   184   1      1.2549999999999972      21.999999999999996      5.0199999999999969
   185   1      2.5099999999999962      21.999999999999996       3.764999999999997
   186   1      1.2549999999999972      21.999999999999996      7.5299999999999976
   187   1      2.5099999999999962      21.999999999999996      6.2749999999999977
   188   1      1.2549999999999972      21.999999999999996      10.039999999999996
   189   1      2.5099999999999962      21.999999999999996      8.7849999999999966
   190   1      1.2549999999999972      21.999999999999996      12.549999999999997
   191   1      2.5099999999999962      21.999999999999996      11.294999999999995
   192   1      1.2549999999999972      21.999999999999996      15.059999999999995
   193   1      2.5099999999999962      21.999999999999996      13.804999999999996
   194   1      1.2549999999999972      21.999999999999996      17.569999999999997
   195   1      2.5099999999999962      21.999999999999996      16.314999999999998
   196   1      1.2549999999999972      21.999999999999996      20.079999999999995
   197   1      2.5099999999999962      21.999999999999996      18.824999999999996
   198   1      1.2549999999999972      21.999999999999996     0.58999999999999098
   199   1      2.5099999999999962      21.999999999999996      21.334999999999994
   200   1      1.2549999999999972      2.5099999999999962      21.999999999999996
   201   1      2.5099999999999962      1.2549999999999972      21.999999999999996
   202   1      1.2549999999999972      1.2549999999999972      1.2549999999999972
   203   1      1.2549999999999972      2.5099999999999962      2.5099999999999962
   204   1      2.5099999999999962      1.2549999999999972      2.5099999999999962
   205   1      2.5099999999999962      2.5099999999999962      1.2549999999999972
   206   1      1.2549999999999972      1.2549999999999972       3.764999999999997
   207   1      1.2549999999999972      2.5099999999999962      5.0199999999999969
   208   1      2.5099999999999962      1.2549999999999972      5.0199999999999969
   209   1      2.5099999999999962      2.5099999999999962       3.764999999999997
   210   1      1.2549999999999972      1.2549999999999972      6.2749999999999977
   211   1      1.2549999999999972      2.5099999999999962      7.5299999999999976
   212   1      2.5099999999999962      1.2549999999999972      7.5299999999999976
   213   1      2.5099999999999962      2.5099999999999962      6.2749999999999977
   214   1      1.2549999999999972      1.2549999999999972      8.7849999999999966
   215   1      1.2549999999999972      2.5099999999999962      10.039999999999996
   216   1      2.5099999999999962      1.2549999999999972      10.039999999999996
   217   1      2.5099999999999962      2.5099999999999962      8.7849999999999966
   218   1      1.2549999999999972      1.2549999999999972      11.294999999999995
   219   1      1.2549999999999972      2.5099999999999962      12.549999999999997
   220   1      2.5099999999999962      1.2549999999999972      12.549999999999997
   221   1      2.5099999999999962      2.5099999999999962      11.294999999999995
   222   1      1.2549999999999972      1.2549999999999972      13.804999999999996
   223   1      1.2549999999999972      2.5099999999999962      15.059999999999995
   224   1      2.5099999999999962      1.2549999999999972      15.059999999999995
   225   1      2.5099999999999962      2.5099999999999962      13.804999999999996
   226   1      1.2549999999999972      1.2549999999999972      16.314999999999998
   227   1      1.2549999999999972      2.5099999999999962      17.569999999999997
   228   1      2.5099999999999962      1.2549999999999972      17.569999999999997
   229   1      2.5099999999999962      2.5099999999999962      16.314999999999998
   230   1      1.2549999999999972      1.2549999999999972      18.824999999999996
   231   1      1.2549999999999972      2.5099999999999962      20.079999999999995
   232   1      2.5099999999999962      1.2549999999999972      20.079999999999995
   233   1      2.5099999999999962      2.5099999999999962      18.824999999999996
   234   1      1.2549999999999972      1.2549999999999972      21.334999999999994
   235   1      1.2549999999999972      2.5099999999999962     0.58999999999999098
   236   1      2.5099999999999962      1.2549999999999972     0.58999999999999098
   237   1      2.5099999999999962      2.5099999999999962      21.334999999999994
   238   1      1.2549999999999972      5.0199999999999969      21.999999999999996
   239   1      2.5099999999999962       3.764999999999997      21.999999999999996
   240   1      1.2549999999999972       3.764999999999997      1.2549999999999972
   241   1      1.2549999999999972      5.0199999999999969      2.5099999999999962
   242   1      2.5099999999999962       3.764999999999997      2.5099999999999962
   243   1      2.5099999999999962      5.0199999999999969      1.2549999999999972
   244   1      1.2549999999999972       3.764999999999997       3.764999999999997
   245   1      1.2549999999999972      5.0199999999999969      5.0199999999999969
   246   1      2.5099999999999962       3.764999999999997      5.0199999999999969
   247   1      2.5099999999999962      5.0199999999999969       3.764999999999997
   248   1      1.2549999999999972       3.764999999999997      6.2749999999999977
   249   1      1.2549999999999972      5.0199999999999969      7.5299999999999976
   250   1      2.5099999999999962       3.764999999999997      7.5299999999999976
   251   1      2.5099999999999962      5.0199999999999969      6.2749999999999977
   252   1      1.2549999999999972       3.764999999999997      8.7849999999999966
   253   1      1.2549999999999972      5.0199999999999969      10.039999999999996
   254   1      2.5099999999999962       3.764999999999997      10.039999999999996
   255   1      2.5099999999999962      5.0199999999999969      8.7849999999999966
   256   1      1.2549999999999972       3.764999999999997      11.294999999999995
   257   1      1.2549999999999972      5.0199999999999969      12.549999999999997
   258   1      2.5099999999999962       3.764999999999997      12.549999999999997
   259   1      2.5099999999999962      5.0199999999999969      11.294999999999995
   260   1      1.2549999999999972       3.764999999999997      13.804999999999996
   261   1      1.2549999999999972      5.0199999999999969      15.059999999999995
   262   1      2.5099999999999962       3.764999999999997      15.059999999999995
   263   1      2.5099999999999962      5.0199999999999969      13.804999999999996
   264   1      1.2549999999999972       3.764999999999997      16.314999999999998
   265   1      1.2549999999999972      5.0199999999999969      17.569999999999997
   266   1      2.5099999999999962       3.764999999999997      17.569999999999997
   267   1      2.5099999999999962      5.0199999999999969      16.314999999999998
   268   1      1.2549999999999972       3.764999999999997      18.824999999999996
   269   1      1.2549999999999972      5.0199999999999969      20.079999999999995
   270   1      2.5099999999999962       3.764999999999997      20.079999999999995
   271   1      2.5099999999999962      5.0199999999999969      18.824999999999996
   272   1      1.2549999999999972       3.764999999999997      21.334999999999994
   273   1      1.2549999999999972      5.0199999999999969     0.58999999999999098
   274   1      2.5099999999999962       3.764999999999997     0.58999999999999098
   275   1      2.5099999999999962      5.0199999999999969      21.334999999999994
   276   1      1.2549999999999972      7.5299999999999976      21.999999999999996
   277   1      2.5099999999999962      6.2749999999999977      21.999999999999996
   278   1      1.2549999999999972      6.2749999999999977      1.2549999999999972
   279   1      1.2549999999999972      7.5299999999999976      2.5099999999999962
   280   1      2.5099999999999962      6.2749999999999977      2.5099999999999962
   281   1      2.5099999999999962      7.5299999999999976      1.2549999999999972
   282   1      1.2549999999999972      6.2749999999999977       3.764999999999997
   283   1      1.2549999999999972      7.5299999999999976      5.0199999999999969
   284   1      2.5099999999999962      6.2749999999999977      5.0199999999999969
   285   1      2.5099999999999962      7.5299999999999976       3.764999999999997
   286   1      1.2549999999999972      6.2749999999999977      6.2749999999999977
   287   1      1.2549999999999972      7.5299999999999976      7.5299999999999976
   288   1      2.5099999999999962      6.2749999999999977      7.5299999999999976
   289   1      2.5099999999999962      7.5299999999999976      6.2749999999999977
   290   1      1.2549999999999972      6.2749999999999977      8.7849999999999966
   291   1      1.2549999999999972      7.5299999999999976      10.039999999999996
   292   1      2.5099999999999962      6.2749999999999977      10.039999999999996
   293   1      2.5099999999999962      7.5299999999999976      8.7849999999999966
   294   1      1.2549999999999972      6.2749999999999977      11.294999999999995
   295   1      1.2549999999999972      7.5299999999999976      12.549999999999997
   296   1      2.5099999999999962      6.2749999999999977      12.549999999999997
   297   1      2.5099999999999962      7.5299999999999976      11.294999999999995
   298   1      1.2549999999999972      6.2749999999999977      13.804999999999996
   299   1      1.2549999999999972      7.5299999999999976      15.059999999999995
   300   1      2.5099999999999962      6.2749999999999977      15.059999999999995
   301   1      2.5099999999999962      7.5299999999999976      13.804999999999996
   302   1      1.2549999999999972      6.2749999999999977      16.314999999999998
   303   1      1.2549999999999972      7.5299999999999976      17.569999999999997
   304   1      2.5099999999999962      6.2749999999999977      17.569999999999997
   305   1      2.5099999999999962      7.5299999999999976      16.314999999999998
   306   1      1.2549999999999972      6.2749999999999977      18.824999999999996
   307   1      1.2549999999999972      7.5299999999999976      20.079999999999995
   308   1      2.5099999999999962      6.2749999999999977      20.079999999999995
   309   1      2.5099999999999962      7.5299999999999976      18.824999999999996
   310   1      1.2549999999999972      6.2749999999999977      21.334999999999994
   311   1      1.2549999999999972      7.5299999999999976     0.58999999999999098
   312   1      2.5099999999999962      6.2749999999999977     0.58999999999999098
   313   1      2.5099999999999962      7.5299999999999976      21.334999999999994
   314   1      1.2549999999999972      10.039999999999996      21.999999999999996
   315   1      2.5099999999999962      8.7849999999999966      21.999999999999996
   316   1      1.2549999999999972      8.7849999999999966      1.2549999999999972
   317   1      1.2549999999999972      10.039999999999996      2.5099999999999962
   318   1      2.5099999999999962      8.7849999999999966      2.5099999999999962
   319   1      2.5099999999999962      10.039999999999996      1.2549999999999972
   320   1      1.2549999999999972      8.7849999999999966       3.764999999999997
   321   1      1.2549999999999972      10.039999999999996      5.0199999999999969
   322   1      2.5099999999999962      8.7849999999999966      5.0199999999999969
   323   1      2.5099999999999962      10.039999999999996       3.764999999999997
   324   1      1.2549999999999972      8.7849999999999966      6.2749999999999977
   325   1      1.2549999999999972      10.039999999999996      7.5299999999999976
   326   1      2.5099999999999962      8.7849999999999966      7.5299999999999976
   327   1      2.5099999999999962      10.039999999999996      6.2749999999999977
   328   1      1.2549999999999972      8.7849999999999966      8.7849999999999966
   329   1      1.2549999999999972      10.039999999999996      10.039999999999996
   330   1      2.5099999999999962      8.7849999999999966      10.039999999999996
   331   1      2.5099999999999962      10.039999999999996      8.7849999999999966
   332   1      1.2549999999999972      8.7849999999999966      11.294999999999995
   333   1      1.2549999999999972      10.039999999999996      12.549999999999997
   334   1      2.5099999999999962      8.7849999999999966      12.549999999999997
   335   1      2.5099999999999962      10.039999999999996      11.294999999999995
   336   1      1.2549999999999972      8.7849999999999966      13.804999999999996
   337   1      1.2549999999999972      10.039999999999996      15.059999999999995
   338   1      2.5099999999999962      8.7849999999999966      15.059999999999995
   339   1      2.5099999999999962      10.039999999999996      13.804999999999996
   340   1      1.2549999999999972      8.7849999999999966      16.314999999999998
   341   1      1.2549999999999972      10.039999999999996      17.569999999999997
   342   1      2.5099999999999962      8.7849999999999966      17.569999999999997
   343   1      2.5099999999999962      10.039999999999996      16.314999999999998
   344   1      1.2549999999999972      8.7849999999999966      18.824999999999996
   345   1      1.2549999999999972      10.039999999999996      20.079999999999995
   346   1      2.5099999999999962      8.7849999999999966      20.079999999999995
   347   1      2.5099999999999962      10.039999999999996      18.824999999999996
   348   1      1.2549999999999972      8.7849999999999966      21.334999999999994
   349   1      1.2549999999999972      10.039999999999996     0.58999999999999098
   350   1      2.5099999999999962      8.7849999999999966     0.58999999999999098
   351   1      2.5099999999999962      10.039999999999996      21.334999999999994
   352   1      1.2549999999999972      12.549999999999997      21.999999999999996
   353   1      2.5099999999999962      11.294999999999995      21.999999999999996
   354   1      1.2549999999999972      11.294999999999995      1.2549999999999972
   355   1      1.2549999999999972      12.549999999999997      2.5099999999999962
   356   1      2.5099999999999962      11.294999999999995      2.5099999999999962
   357   1      2.5099999999999962      12.549999999999997      1.2549999999999972
   358   1      1.2549999999999972      11.294999999999995       3.764999999999997