model_files/Ag/Ag_30000/Ag_533/data.Ag_533_fcc_30085 (written by ASE) 

30085 	 atoms 
1  atom types
0.0                     118  xlo xhi
0.0                     118  ylo yhi
0.0                     118  zlo zhi


Atoms 

     1   1  1.4210854715202004e-14      57.260000000000012      59.305000000000007
     2   1  1.4210854715202004e-14      59.305000000000007      57.260000000000012
     3   1  1.4210854715202004e-14      59.305000000000007      61.350000000000009
     4   1  1.4210854715202004e-14      61.350000000000009      59.305000000000007
     5   1      4.0900000000000105      53.170000000000016      59.305000000000007
     6   1      2.0450000000000159      57.260000000000012      57.260000000000012
     7   1      4.0900000000000105      55.215000000000011      57.260000000000012
     8   1      4.0900000000000105      57.260000000000012      55.215000000000011
     9   1      2.0450000000000159      55.215000000000011      59.305000000000007
    10   1      2.0450000000000159      57.260000000000012      61.350000000000009
    11   1      4.0900000000000105      55.215000000000011      61.350000000000009
    12   1      4.0900000000000105      57.260000000000012      59.305000000000007
    13   1      4.0900000000000105      57.260000000000012      63.395000000000017
    14   1      4.0900000000000105      59.305000000000007      53.170000000000016
    15   1      2.0450000000000159      59.305000000000007      55.215000000000011
    16   1      2.0450000000000159      61.350000000000009      57.260000000000012
    17   1      4.0900000000000105      59.305000000000007      57.260000000000012
    18   1      4.0900000000000105      61.350000000000009      55.215000000000011
    19   1      2.0450000000000159      59.305000000000007      59.305000000000007
    20   1      2.0450000000000159      61.350000000000009      61.350000000000009
    21   1      4.0900000000000105      59.305000000000007      61.350000000000009
    22   1      4.0900000000000105      61.350000000000009      59.305000000000007
    23   1      2.0450000000000159      59.305000000000007      63.395000000000017
    24   1      4.0900000000000105      59.305000000000007      65.440000000000012
    25   1      4.0900000000000105      61.350000000000009      63.395000000000017
    26   1      4.0900000000000105      63.395000000000017      57.260000000000012
    27   1      2.0450000000000159      63.395000000000017      59.305000000000007
    28   1      4.0900000000000105      63.395000000000017      61.350000000000009
    29   1      4.0900000000000105      65.440000000000012      59.305000000000007
    30   1      8.1800000000000139      44.990000000000009      59.305000000000007
    31   1      6.1350000000000122      49.080000000000013      57.260000000000012
    32   1      8.1800000000000139      47.035000000000011      57.260000000000012
    33   1      8.1800000000000139      49.080000000000013      55.215000000000011
    34   1      6.1350000000000122      47.035000000000011      59.305000000000007
    35   1      6.1350000000000122      49.080000000000013      61.350000000000009
    36   1      8.1800000000000139      47.035000000000011      61.350000000000009
    37   1      8.1800000000000139      49.080000000000013      59.305000000000007
    38   1      8.1800000000000139      49.080000000000013      63.395000000000017
    39   1      6.1350000000000122      53.170000000000016      53.170000000000016
    40   1      8.1800000000000139      51.125000000000014      53.170000000000016
    41   1      8.1800000000000139      53.170000000000016      51.125000000000014
    42   1      6.1350000000000122      51.125000000000014      55.215000000000011
    43   1      6.1350000000000122      53.170000000000016      57.260000000000012
    44   1      8.1800000000000139      51.125000000000014      57.260000000000012
    45   1      8.1800000000000139      53.170000000000016      55.215000000000011
    46   1      6.1350000000000122      51.125000000000014      59.305000000000007
    47   1      6.1350000000000122      53.170000000000016      61.350000000000009
    48   1      8.1800000000000139      51.125000000000014      61.350000000000009
    49   1      8.1800000000000139      53.170000000000016      59.305000000000007
    50   1      6.1350000000000122      51.125000000000014      63.395000000000017
    51   1      6.1350000000000122      53.170000000000016      65.440000000000012
    52   1      8.1800000000000139      51.125000000000014      65.440000000000012
    53   1      8.1800000000000139      53.170000000000016      63.395000000000017
    54   1      8.1800000000000139      53.170000000000016      67.485000000000014
    55   1      6.1350000000000122      57.260000000000012      49.080000000000013
    56   1      8.1800000000000139      55.215000000000011      49.080000000000013
    57   1      8.1800000000000139      57.260000000000012      47.035000000000011
    58   1      6.1350000000000122      55.215000000000011      51.125000000000014
    59   1      6.1350000000000122      57.260000000000012      53.170000000000016
    60   1      8.1800000000000139      55.215000000000011      53.170000000000016
    61   1      8.1800000000000139      57.260000000000012      51.125000000000014
    62   1      6.1350000000000122      55.215000000000011      55.215000000000011
    63   1      6.1350000000000122      57.260000000000012      57.260000000000012
    64   1      8.1800000000000139      55.215000000000011      57.260000000000012
    65   1      8.1800000000000139      57.260000000000012      55.215000000000011
    66   1      6.1350000000000122      55.215000000000011      59.305000000000007
    67   1      6.1350000000000122      57.260000000000012      61.350000000000009
    68   1      8.1800000000000139      55.215000000000011      61.350000000000009
    69   1      8.1800000000000139      57.260000000000012      59.305000000000007
    70   1      6.1350000000000122      55.215000000000011      63.395000000000017
    71   1      6.1350000000000122      57.260000000000012      65.440000000000012
    72   1      8.1800000000000139      55.215000000000011      65.440000000000012
    73   1      8.1800000000000139      57.260000000000012      63.395000000000017
    74   1      6.1350000000000122      55.215000000000011      67.485000000000014
    75   1      6.1350000000000122      57.260000000000012      69.530000000000015
    76   1      8.1800000000000139      55.215000000000011      69.530000000000015
    77   1      8.1800000000000139      57.260000000000012      67.485000000000014
    78   1      8.1800000000000139      57.260000000000012      71.575000000000017
    79   1      8.1800000000000139      59.305000000000007      44.990000000000009
    80   1      6.1350000000000122      59.305000000000007      47.035000000000011
    81   1      6.1350000000000122      61.350000000000009      49.080000000000013
    82   1      8.1800000000000139      59.305000000000007      49.080000000000013
    83   1      8.1800000000000139      61.350000000000009      47.035000000000011
    84   1      6.1350000000000122      59.305000000000007      51.125000000000014
    85   1      6.1350000000000122      61.350000000000009      53.170000000000016
    86   1      8.1800000000000139      59.305000000000007      53.170000000000016
    87   1      8.1800000000000139      61.350000000000009      51.125000000000014
    88   1      6.1350000000000122      59.305000000000007      55.215000000000011
    89   1      6.1350000000000122      61.350000000000009      57.260000000000012
    90   1      8.1800000000000139      59.305000000000007      57.260000000000012
    91   1      8.1800000000000139      61.350000000000009      55.215000000000011
    92   1      6.1350000000000122      59.305000000000007      59.305000000000007
    93   1      6.1350000000000122      61.350000000000009      61.350000000000009
    94   1      8.1800000000000139      59.305000000000007      61.350000000000009
    95   1      8.1800000000000139      61.350000000000009      59.305000000000007
    96   1      6.1350000000000122      59.305000000000007      63.395000000000017
    97   1      6.1350000000000122      61.350000000000009      65.440000000000012
    98   1      8.1800000000000139      59.305000000000007      65.440000000000012
    99   1      8.1800000000000139      61.350000000000009      63.395000000000017
   100   1      6.1350000000000122      59.305000000000007      67.485000000000014
   101   1      6.1350000000000122      61.350000000000009      69.530000000000015
   102   1      8.1800000000000139      59.305000000000007      69.530000000000015
   103   1      8.1800000000000139      61.350000000000009      67.485000000000014
   104   1      6.1350000000000122      59.305000000000007      71.575000000000017
   105   1      8.1800000000000139      59.305000000000007      73.620000000000019
   106   1      8.1800000000000139      61.350000000000009      71.575000000000017
   107   1      8.1800000000000139      63.395000000000017      49.080000000000013
   108   1      6.1350000000000122      63.395000000000017      51.125000000000014
   109   1      6.1350000000000122      65.440000000000012      53.170000000000016
   110   1      8.1800000000000139      63.395000000000017      53.170000000000016
   111   1      8.1800000000000139      65.440000000000012      51.125000000000014
   112   1      6.1350000000000122      63.395000000000017      55.215000000000011
   113   1      6.1350000000000122      65.440000000000012      57.260000000000012
   114   1      8.1800000000000139      63.395000000000017      57.260000000000012
   115   1      8.1800000000000139      65.440000000000012      55.215000000000011
   116   1      6.1350000000000122      63.395000000000017      59.305000000000007
   117   1      6.1350000000000122      65.440000000000012      61.350000000000009
   118   1      8.1800000000000139      63.395000000000017      61.350000000000009
   119   1      8.1800000000000139      65.440000000000012      59.305000000000007
   120   1      6.1350000000000122      63.395000000000017      63.395000000000017
   121   1      6.1350000000000122      65.440000000000012      65.440000000000012
   122   1      8.1800000000000139      63.395000000000017      65.440000000000012
   123   1      8.1800000000000139      65.440000000000012      63.395000000000017
   124   1      6.1350000000000122      63.395000000000017      67.485000000000014
   125   1      8.1800000000000139      63.395000000000017      69.530000000000015
   126   1      8.1800000000000139      65.440000000000012      67.485000000000014
   127   1      8.1800000000000139      67.485000000000014      53.170000000000016
   128   1      6.1350000000000122      67.485000000000014      55.215000000000011
   129   1      6.1350000000000122      69.530000000000015      57.260000000000012
   130   1      8.1800000000000139      67.485000000000014      57.260000000000012
   131   1      8.1800000000000139      69.530000000000015      55.215000000000011
   132   1      6.1350000000000122      67.485000000000014      59.305000000000007
   133   1      6.1350000000000122      69.530000000000015      61.350000000000009
   134   1      8.1800000000000139      67.485000000000014      61.350000000000009
   135   1      8.1800000000000139      69.530000000000015      59.305000000000007
   136   1      6.1350000000000122      67.485000000000014      63.395000000000017
   137   1      8.1800000000000139      67.485000000000014      65.440000000000012
   138   1      8.1800000000000139      69.530000000000015      63.395000000000017
   139   1      8.1800000000000139      71.575000000000017      57.260000000000012
   140   1      6.1350000000000122      71.575000000000017      59.305000000000007
   141   1      8.1800000000000139      71.575000000000017      61.350000000000009
   142   1      8.1800000000000139      73.620000000000019      59.305000000000007
   143   1       12.27000000000001      36.810000000000016      59.305000000000007
   144   1       12.27000000000001      38.855000000000011      57.260000000000012
   145   1       12.27000000000001      40.900000000000013      55.215000000000011
   146   1       12.27000000000001      38.855000000000011      61.350000000000009
   147   1       12.27000000000001      40.900000000000013      59.305000000000007
   148   1       12.27000000000001      40.900000000000013      63.395000000000017
   149   1       12.27000000000001      42.945000000000007      53.170000000000016
   150   1       12.27000000000001      44.990000000000009      51.125000000000014
   151   1      10.225000000000009      44.990000000000009      57.260000000000012
   152   1       12.27000000000001      42.945000000000007      57.260000000000012
   153   1       12.27000000000001      44.990000000000009      55.215000000000011
   154   1      10.225000000000009      42.945000000000007      59.305000000000007
   155   1      10.225000000000009      44.990000000000009      61.350000000000009
   156   1       12.27000000000001      42.945000000000007      61.350000000000009
   157   1       12.27000000000001      44.990000000000009      59.305000000000007
   158   1       12.27000000000001      42.945000000000007      65.440000000000012
   159   1       12.27000000000001      44.990000000000009      63.395000000000017
   160   1       12.27000000000001      44.990000000000009      67.485000000000014
   161   1       12.27000000000001      47.035000000000011      49.080000000000013
   162   1       12.27000000000001      49.080000000000013      47.035000000000011
   163   1      10.225000000000009      49.080000000000013      53.170000000000016
   164   1       12.27000000000001      47.035000000000011      53.170000000000016
   165   1       12.27000000000001      49.080000000000013      51.125000000000014
   166   1      10.225000000000009      47.035000000000011      55.215000000000011
   167   1      10.225000000000009      49.080000000000013      57.260000000000012
   168   1       12.27000000000001      47.035000000000011      57.260000000000012
   169   1       12.27000000000001      49.080000000000013      55.215000000000011
   170   1      10.225000000000009      47.035000000000011      59.305000000000007
   171   1      10.225000000000009      49.080000000000013      61.350000000000009
   172   1       12.27000000000001      47.035000000000011      61.350000000000009
   173   1       12.27000000000001      49.080000000000013      59.305000000000007
   174   1      10.225000000000009      47.035000000000011      63.395000000000017
   175   1      10.225000000000009      49.080000000000013      65.440000000000012
   176   1       12.27000000000001      47.035000000000011      65.440000000000012
   177   1       12.27000000000001      49.080000000000013      63.395000000000017
   178   1       12.27000000000001      47.035000000000011      69.530000000000015
   179   1       12.27000000000001      49.080000000000013      67.485000000000014
   180   1       12.27000000000001      49.080000000000013      71.575000000000017
   181   1       12.27000000000001      51.125000000000014      44.990000000000009
   182   1       12.27000000000001      53.170000000000016      42.945000000000007
   183   1      10.225000000000009      53.170000000000016      49.080000000000013
   184   1       12.27000000000001      51.125000000000014      49.080000000000013
   185   1       12.27000000000001      53.170000000000016      47.035000000000011
   186   1      10.225000000000009      51.125000000000014      51.125000000000014
   187   1      10.225000000000009      53.170000000000016      53.170000000000016
   188   1       12.27000000000001      51.125000000000014      53.170000000000016
   189   1       12.27000000000001      53.170000000000016      51.125000000000014
   190   1      10.225000000000009      51.125000000000014      55.215000000000011
   191   1      10.225000000000009      53.170000000000016      57.260000000000012
   192   1       12.27000000000001      51.125000000000014      57.260000000000012
   193   1       12.27000000000001      53.170000000000016      55.215000000000011
   194   1      10.225000000000009      51.125000000000014      59.305000000000007
   195   1      10.225000000000009      53.170000000000016      61.350000000000009
   196   1       12.27000000000001      51.125000000000014      61.350000000000009
   197   1       12.27000000000001      53.170000000000016      59.305000000000007
   198   1      10.225000000000009      51.125000000000014      63.395000000000017
   199   1      10.225000000000009      53.170000000000016      65.440000000000012
   200   1       12.27000000000001      51.125000000000014      65.440000000000012
   201   1       12.27000000000001      53.170000000000016      63.395000000000017
   202   1      10.225000000000009      51.125000000000014      67.485000000000014
   203   1      10.225000000000009      53.170000000000016      69.530000000000015
   204   1       12.27000000000001      51.125000000000014      69.530000000000015
   205   1       12.27000000000001      53.170000000000016      67.485000000000014
   206   1       12.27000000000001      51.125000000000014      73.620000000000019
   207   1       12.27000000000001      53.170000000000016      71.575000000000017
   208   1       12.27000000000001      53.170000000000016      75.665000000000006
   209   1       12.27000000000001      55.215000000000011      40.900000000000013
   210   1       12.27000000000001      57.260000000000012      38.855000000000011
   211   1      10.225000000000009      57.260000000000012      44.990000000000009
   212   1       12.27000000000001      55.215000000000011      44.990000000000009
   213   1       12.27000000000001      57.260000000000012      42.945000000000007
   214   1      10.225000000000009      55.215000000000011      47.035000000000011
   215   1      10.225000000000009      57.260000000000012      49.080000000000013
   216   1       12.27000000000001      55.215000000000011      49.080000000000013
   217   1       12.27000000000001      57.260000000000012      47.035000000000011
   218   1      10.225000000000009      55.215000000000011      51.125000000000014
   219   1      10.225000000000009      57.260000000000012      53.170000000000016
   220   1       12.27000000000001      55.215000000000011      53.170000000000016
   221   1       12.27000000000001      57.260000000000012      51.125000000000014
   222   1      10.225000000000009      55.215000000000011      55.215000000000011
   223   1      10.225000000000009      57.260000000000012      57.260000000000012
   224   1       12.27000000000001      55.215000000000011      57.260000000000012
   225   1       12.27000000000001      57.260000000000012      55.215000000000011
   226   1      10.225000000000009      55.215000000000011      59.305000000000007
   227   1      10.225000000000009      57.260000000000012      61.350000000000009
   228   1       12.27000000000001      55.215000000000011      61.350000000000009
   229   1       12.27000000000001      57.260000000000012      59.305000000000007
   230   1      10.225000000000009      55.215000000000011      63.395000000000017
   231   1      10.225000000000009      57.260000000000012      65.440000000000012
   232   1       12.27000000000001      55.215000000000011      65.440000000000012
   233   1       12.27000000000001      57.260000000000012      63.395000000000017
   234   1      10.225000000000009      55.215000000000011      67.485000000000014
   235   1      10.225000000000009      57.260000000000012      69.530000000000015
   236   1       12.27000000000001      55.215000000000011      69.530000000000015
   237   1       12.27000000000001      57.260000000000012      67.485000000000014
   238   1      10.225000000000009      55.215000000000011      71.575000000000017
   239   1      10.225000000000009      57.260000000000012      73.620000000000019
   240   1       12.27000000000001      55.215000000000011      73.620000000000019
   241   1       12.27000000000001      57.260000000000012      71.575000000000017
   242   1       12.27000000000001      55.215000000000011      77.710000000000008
   243   1       12.27000000000001      57.260000000000012      75.665000000000006
   244   1       12.27000000000001      57.260000000000012       79.75500000000001
   245   1       12.27000000000001      59.305000000000007      36.810000000000016
   246   1       12.27000000000001      59.305000000000007      40.900000000000013
   247   1       12.27000000000001      61.350000000000009      38.855000000000011
   248   1      10.225000000000009      59.305000000000007      42.945000000000007
   249   1      10.225000000000009      61.350000000000009      44.990000000000009
   250   1       12.27000000000001      59.305000000000007      44.990000000000009
   251   1       12.27000000000001      61.350000000000009      42.945000000000007
   252   1      10.225000000000009      59.305000000000007      47.035000000000011
   253   1      10.225000000000009      61.350000000000009      49.080000000000013
   254   1       12.27000000000001      59.305000000000007      49.080000000000013
   255   1       12.27000000000001      61.350000000000009      47.035000000000011
   256   1      10.225000000000009      59.305000000000007      51.125000000000014
   257   1      10.225000000000009      61.350000000000009      53.170000000000016
   258   1       12.27000000000001      59.305000000000007      53.170000000000016
   259   1       12.27000000000001      61.350000000000009      51.125000000000014
   260   1      10.225000000000009      59.305000000000007      55.215000000000011
   261   1      10.225000000000009      61.350000000000009      57.260000000000012
   262   1       12.27000000000001      59.305000000000007      57.260000000000012
   263   1       12.27000000000001      61.350000000000009      55.215000000000011
   264   1      10.225000000000009      59.305000000000007      59.305000000000007
   265   1      10.225000000000009      61.350000000000009      61.350000000000009
   266   1       12.27000000000001      59.305000000000007      61.350000000000009
   267   1       12.27000000000001      61.350000000000009      59.305000000000007
   268   1      10.225000000000009      59.305000000000007      63.395000000000017
   269   1      10.225000000000009      61.350000000000009      65.440000000000012
   270   1       12.27000000000001      59.305000000000007      65.440000000000012
   271   1       12.27000000000001      61.350000000000009      63.395000000000017
   272   1      10.225000000000009      59.305000000000007      67.485000000000014
   273   1      10.225000000000009      61.350000000000009      69.530000000000015
   274   1       12.27000000000001      59.305000000000007      69.530000000000015
   275   1       12.27000000000001      61.350000000000009      67.485000000000014
   276   1      10.225000000000009      59.305000000000007      71.575000000000017
   277   1      10.225000000000009      61.350000000000009      73.620000000000019
   278   1       12.27000000000001      59.305000000000007      73.620000000000019
   279   1       12.27000000000001      61.350000000000009      71.575000000000017
   280   1      10.225000000000009      59.305000000000007      75.665000000000006
   281   1       12.27000000000001      59.305000000000007      77.710000000000008
   282   1       12.27000000000001      61.350000000000009      75.665000000000006
   283   1       12.27000000000001      59.305000000000007      81.800000000000011
   284   1       12.27000000000001      61.350000000000009       79.75500000000001
   285   1       12.27000000000001      63.395000000000017      40.900000000000013
   286   1       12.27000000000001      63.395000000000017      44.990000000000009
   287   1       12.27000000000001      65.440000000000012      42.945000000000007
   288   1      10.225000000000009      63.395000000000017      47.035000000000011
   289   1      10.225000000000009      65.440000000000012      49.080000000000013
   290   1       12.27000000000001      63.395000000000017      49.080000000000013
   291   1       12.27000000000001      65.440000000000012      47.035000000000011
   292   1      10.225000000000009      63.395000000000017      51.125000000000014
   293   1      10.225000000000009      65.440000000000012      53.170000000000016
   294   1       12.27000000000001      63.395000000000017      53.170000000000016
   295   1       12.27000000000001      65.440000000000012      51.125000000000014
   296   1      10.225000000000009      63.395000000000017      55.215000000000011
   297   1      10.225000000000009      65.440000000000012      57.260000000000012
   298   1       12.27000000000001      63.395000000000017      57.260000000000012
   299   1       12.27000000000001      65.440000000000012      55.215000000000011
   300   1      10.225000000000009      63.395000000000017      59.305000000000007
   301   1      10.225000000000009      65.440000000000012      61.350000000000009
   302   1       12.27000000000001      63.395000000000017      61.350000000000009
   303   1       12.27000000000001      65.440000000000012      59.305000000000007
   304   1      10.225000000000009      63.395000000000017      63.395000000000017
   305   1      10.225000000000009      65.440000000000012      65.440000000000012
   306   1       12.27000000000001      63.395000000000017      65.440000000000012
   307   1       12.27000000000001      65.440000000000012      63.395000000000017
   308   1      10.225000000000009      63.395000000000017      67.485000000000014
   309   1      10.225000000000009      65.440000000000012      69.530000000000015
   310   1       12.27000000000001      63.395000000000017      69.530000000000015
   311   1       12.27000000000001      65.440000000000012      67.485000000000014
   312   1      10.225000000000009      63.395000000000017      71.575000000000017
   313   1       12.27000000000001      63.395000000000017      73.620000000000019
   314   1       12.27000000000001      65.440000000000012      71.575000000000017
   315   1       12.27000000000001      63.395000000000017      77.710000000000008
   316   1       12.27000000000001      65.440000000000012      75.665000000000006
   317   1       12.27000000000001      67.485000000000014      44.990000000000009
   318   1       12.27000000000001      67.485000000000014      49.080000000000013
   319   1       12.27000000000001      69.530000000000015      47.035000000000011
   320   1      10.225000000000009      67.485000000000014      51.125000000000014
   321   1      10.225000000000009      69.530000000000015      53.170000000000016
   322   1       12.27000000000001      67.485000000000014      53.170000000000016
   323   1       12.27000000000001      69.530000000000015      51.125000000000014
   324   1      10.225000000000009      67.485000000000014      55.215000000000011
   325   1      10.225000000000009      69.530000000000015      57.260000000000012
   326   1       12.27000000000001      67.485000000000014      57.260000000000012
   327   1       12.27000000000001      69.530000000000015      55.215000000000011
   328   1      10.225000000000009      67.485000000000014      59.305000000000007
   329   1      10.225000000000009      69.530000000000015      61.350000000000009
   330   1       12.27000000000001      67.485000000000014      61.350000000000009
   331   1       12.27000000000001      69.530000000000015      59.305000000000007
   332   1      10.225000000000009      67.485000000000014      63.395000000000017
   333   1      10.225000000000009      69.530000000000015      65.440000000000012
   334   1       12.27000000000001      67.485000000000014      65.440000000000012
   335   1       12.27000000000001      69.530000000000015      63.395000000000017
   336   1      10.225000000000009      67.485000000000014      67.485000000000014
   337   1       12.27000000000001      67.485000000000014      69.530000000000015
   338   1       12.27000000000001      69.530000000000015      67.485000000000014
   339   1       12.27000000000001      67.485000000000014      73.620000000000019
   340   1       12.27000000000001      69.530000000000015      71.575000000000017
   341   1       12.27000000000001      71.575000000000017      49.080000000000013
   342   1       12.27000000000001      71.575000000000017      53.170000000000016
   343   1       12.27000000000001      73.620000000000019      51.125000000000014
   344   1      10.225000000000009      71.575000000000017      55.215000000000011
   345   1      10.225000000000009      73.620000000000019      57.260000000000012
   346   1       12.27000000000001      71.575000000000017      57.260000000000012
   347   1       12.27000000000001      73.620000000000019      55.215000000000011
   348   1      10.225000000000009      71.575000000000017      59.305000000000007
   349   1      10.225000000000009      73.620000000000019      61.350000000000009
   350   1       12.27000000000001      71.575000000000017      61.350000000000009
   351   1       12.27000000000001      73.620000000000019      59.305000000000007
   352   1      10.225000000000009      71.575000000000017      63.395000000000017
   353   1       12.27000000000001      71.575000000000017      65.440000000000012
   354   1       12.27000000000001      73.620000000000019      63.395000000000017
   355   1       12.27000000000001      71.575000000000017      69.530000000000015
   356   1       12.27000000000001      73.620000000000019      67.485000000000014
   357   1       12.27000000000001      75.665000000000006      53.170000000000016
   358   1       12.27000000000001      75.665000000000006      57.260000000000012