model_files/PdNi/PdNi_30000/PdNi_321/PdNi_321_fcc_29817_temp.data (written by ASE) 

29817 	 atoms 
2  atom types
0.0                     104  xlo xhi
0.0                     104  ylo yhi
0.0                     104  zlo zhi


Atoms 

     1   1      1.8625000000000043      46.562500000000014      52.150000000000013
     2   1  7.1054273576010019e-15      50.287500000000001      50.287500000000001
     3   1      1.8625000000000043      48.425000000000004      50.287500000000001
     4   1      1.8625000000000043      50.287500000000001      48.425000000000004
     5   1  7.1054273576010019e-15      50.287500000000001       54.01250000000001
     6   1      1.8625000000000043      48.425000000000004       54.01250000000001
     7   1      1.8625000000000043      50.287500000000001      52.150000000000013
     8   1      1.8625000000000043      50.287500000000001      55.875000000000014
     9   1      1.8625000000000043      52.150000000000013      46.562500000000014
    10   1  7.1054273576010019e-15       54.01250000000001      50.287500000000001
    11   1      1.8625000000000043      52.150000000000013      50.287500000000001
    12   1      1.8625000000000043       54.01250000000001      48.425000000000004
    13   1  7.1054273576010019e-15      52.150000000000013      52.150000000000013
    14   1  7.1054273576010019e-15       54.01250000000001       54.01250000000001
    15   1      1.8625000000000043      52.150000000000013       54.01250000000001
    16   1      1.8625000000000043       54.01250000000001      52.150000000000013
    17   1      1.8625000000000043      52.150000000000013      57.737500000000011
    18   1      1.8625000000000043       54.01250000000001      55.875000000000014
    19   1      1.8625000000000043      55.875000000000014      50.287500000000001
    20   1      1.8625000000000043      55.875000000000014       54.01250000000001
    21   1      1.8625000000000043      57.737500000000011      52.150000000000013
    22   1      5.5875000000000057      42.837500000000006      48.425000000000004
    23   1      5.5875000000000057      42.837500000000006      52.150000000000013
    24   1      5.5875000000000057      42.837500000000006      55.875000000000014
    25   1      3.7250000000000085      46.562500000000014      46.562500000000014
    26   1      5.5875000000000057      44.700000000000017      46.562500000000014
    27   1      5.5875000000000057      46.562500000000014      44.700000000000017
    28   1      3.7250000000000085      46.562500000000014      50.287500000000001
    29   1      5.5875000000000057      44.700000000000017      50.287500000000001
    30   1      5.5875000000000057      46.562500000000014      48.425000000000004
    31   1      3.7250000000000085      44.700000000000017      52.150000000000013
    32   1      3.7250000000000085      46.562500000000014       54.01250000000001
    33   1      5.5875000000000057      44.700000000000017       54.01250000000001
    34   1      5.5875000000000057      46.562500000000014      52.150000000000013
    35   1      3.7250000000000085      46.562500000000014      57.737500000000011
    36   1      5.5875000000000057      44.700000000000017      57.737500000000011
    37   1      5.5875000000000057      46.562500000000014      55.875000000000014
    38   1      5.5875000000000057      46.562500000000014      59.600000000000009
    39   1      5.5875000000000057      48.425000000000004      42.837500000000006
    40   1      3.7250000000000085      50.287500000000001      46.562500000000014
    41   1      5.5875000000000057      48.425000000000004      46.562500000000014
    42   1      5.5875000000000057      50.287500000000001      44.700000000000017
    43   1      3.7250000000000085      48.425000000000004      48.425000000000004
    44   1      3.7250000000000085      50.287500000000001      50.287500000000001
    45   1      5.5875000000000057      48.425000000000004      50.287500000000001
    46   1      5.5875000000000057      50.287500000000001      48.425000000000004
    47   1      3.7250000000000085      48.425000000000004      52.150000000000013
    48   1      3.7250000000000085      50.287500000000001       54.01250000000001
    49   1      5.5875000000000057      48.425000000000004       54.01250000000001
    50   1      5.5875000000000057      50.287500000000001      52.150000000000013
    51   1      3.7250000000000085      48.425000000000004      55.875000000000014
    52   1      3.7250000000000085      50.287500000000001      57.737500000000011
    53   1      5.5875000000000057      48.425000000000004      57.737500000000011
    54   1      5.5875000000000057      50.287500000000001      55.875000000000014
    55   1      5.5875000000000057      48.425000000000004      61.462500000000006
    56   1      5.5875000000000057      50.287500000000001      59.600000000000009
    57   1      5.5875000000000057      52.150000000000013      42.837500000000006
    58   1      3.7250000000000085      52.150000000000013      44.700000000000017
    59   1      3.7250000000000085       54.01250000000001      46.562500000000014
    60   1      5.5875000000000057      52.150000000000013      46.562500000000014
    61   1      5.5875000000000057       54.01250000000001      44.700000000000017
    62   1      3.7250000000000085      52.150000000000013      48.425000000000004
    63   1      3.7250000000000085       54.01250000000001      50.287500000000001
    64   1      5.5875000000000057      52.150000000000013      50.287500000000001
    65   1      5.5875000000000057       54.01250000000001      48.425000000000004
    66   1      3.7250000000000085      52.150000000000013      52.150000000000013
    67   1      3.7250000000000085       54.01250000000001       54.01250000000001
    68   1      5.5875000000000057      52.150000000000013       54.01250000000001
    69   1      5.5875000000000057       54.01250000000001      52.150000000000013
    70   1      3.7250000000000085      52.150000000000013      55.875000000000014
    71   1      3.7250000000000085       54.01250000000001      57.737500000000011
    72   1      5.5875000000000057      52.150000000000013      57.737500000000011
    73   1      5.5875000000000057       54.01250000000001      55.875000000000014
    74   1      3.7250000000000085      52.150000000000013      59.600000000000009
    75   1      5.5875000000000057      52.150000000000013      61.462500000000006
    76   1      5.5875000000000057       54.01250000000001      59.600000000000009
    77   1      5.5875000000000057      55.875000000000014      42.837500000000006
    78   1      3.7250000000000085      57.737500000000011      46.562500000000014
    79   1      5.5875000000000057      55.875000000000014      46.562500000000014
    80   1      5.5875000000000057      57.737500000000011      44.700000000000017
    81   1      3.7250000000000085      55.875000000000014      48.425000000000004
    82   1      3.7250000000000085      57.737500000000011      50.287500000000001
    83   1      5.5875000000000057      55.875000000000014      50.287500000000001
    84   1      5.5875000000000057      57.737500000000011      48.425000000000004
    85   1      3.7250000000000085      55.875000000000014      52.150000000000013
    86   1      3.7250000000000085      57.737500000000011       54.01250000000001
    87   1      5.5875000000000057      55.875000000000014       54.01250000000001
    88   1      5.5875000000000057      57.737500000000011      52.150000000000013
    89   1      3.7250000000000085      55.875000000000014      55.875000000000014
    90   1      3.7250000000000085      57.737500000000011      57.737500000000011
    91   1      5.5875000000000057      55.875000000000014      57.737500000000011
    92   1      5.5875000000000057      57.737500000000011      55.875000000000014
    93   1      5.5875000000000057      55.875000000000014      61.462500000000006
    94   1      5.5875000000000057      57.737500000000011      59.600000000000009
    95   1      5.5875000000000057      59.600000000000009      46.562500000000014
    96   1      5.5875000000000057      59.600000000000009      50.287500000000001
    97   1      5.5875000000000057      61.462500000000006      48.425000000000004
    98   1      3.7250000000000085      59.600000000000009      52.150000000000013
    99   1      5.5875000000000057      59.600000000000009       54.01250000000001
   100   1      5.5875000000000057      61.462500000000006      52.150000000000013
   101   1      5.5875000000000057      59.600000000000009      57.737500000000011
   102   1      5.5875000000000057      61.462500000000006      55.875000000000014
   103   1      9.3125000000000071      35.387500000000003      52.150000000000013
   104   1      9.3125000000000071      39.112500000000011      44.700000000000017
   105   1      7.4500000000000037      39.112500000000011      50.287500000000001
   106   1      9.3125000000000071      37.250000000000014      50.287500000000001
   107   1      9.3125000000000071      39.112500000000011      48.425000000000004
   108   1      7.4500000000000037      39.112500000000011       54.01250000000001
   109   1      9.3125000000000071      37.250000000000014       54.01250000000001
   110   1      9.3125000000000071      39.112500000000011      52.150000000000013
   111   1      9.3125000000000071      39.112500000000011      55.875000000000014
   112   1      9.3125000000000071      39.112500000000011      59.600000000000009
   113   1      7.4500000000000037      42.837500000000006      42.837500000000006
   114   1      9.3125000000000071      40.975000000000009      42.837500000000006
   115   1      9.3125000000000071      42.837500000000006      40.975000000000009
   116   1      7.4500000000000037      42.837500000000006      46.562500000000014
   117   1      9.3125000000000071      40.975000000000009      46.562500000000014
   118   1      9.3125000000000071      42.837500000000006      44.700000000000017
   119   1      7.4500000000000037      40.975000000000009      48.425000000000004
   120   1      7.4500000000000037      42.837500000000006      50.287500000000001
   121   1      9.3125000000000071      40.975000000000009      50.287500000000001
   122   1      9.3125000000000071      42.837500000000006      48.425000000000004
   123   1      7.4500000000000037      40.975000000000009      52.150000000000013
   124   1      7.4500000000000037      42.837500000000006       54.01250000000001
   125   1      9.3125000000000071      40.975000000000009       54.01250000000001
   126   1      9.3125000000000071      42.837500000000006      52.150000000000013
   127   1      7.4500000000000037      40.975000000000009      55.875000000000014
   128   1      7.4500000000000037      42.837500000000006      57.737500000000011
   129   1      9.3125000000000071      40.975000000000009      57.737500000000011
   130   1      9.3125000000000071      42.837500000000006      55.875000000000014
   131   1      7.4500000000000037      42.837500000000006      61.462500000000006
   132   1      9.3125000000000071      40.975000000000009      61.462500000000006
   133   1      9.3125000000000071      42.837500000000006      59.600000000000009
   134   1      9.3125000000000071      42.837500000000006       63.32500000000001
   135   1      9.3125000000000071      44.700000000000017      39.112500000000011
   136   1      7.4500000000000037      46.562500000000014      42.837500000000006
   137   1      9.3125000000000071      44.700000000000017      42.837500000000006
   138   1      9.3125000000000071      46.562500000000014      40.975000000000009
   139   1      7.4500000000000037      44.700000000000017      44.700000000000017
   140   1      7.4500000000000037      46.562500000000014      46.562500000000014
   141   1      9.3125000000000071      44.700000000000017      46.562500000000014
   142   1      9.3125000000000071      46.562500000000014      44.700000000000017
   143   1      7.4500000000000037      44.700000000000017      48.425000000000004
   144   1      7.4500000000000037      46.562500000000014      50.287500000000001
   145   1      9.3125000000000071      44.700000000000017      50.287500000000001
   146   1      9.3125000000000071      46.562500000000014      48.425000000000004
   147   1      7.4500000000000037      44.700000000000017      52.150000000000013
   148   1      7.4500000000000037      46.562500000000014       54.01250000000001
   149   1      9.3125000000000071      44.700000000000017       54.01250000000001
   150   1      9.3125000000000071      46.562500000000014      52.150000000000013
   151   1      7.4500000000000037      44.700000000000017      55.875000000000014
   152   1      7.4500000000000037      46.562500000000014      57.737500000000011
   153   1      9.3125000000000071      44.700000000000017      57.737500000000011
   154   1      9.3125000000000071      46.562500000000014      55.875000000000014
   155   1      7.4500000000000037      44.700000000000017      59.600000000000009
   156   1      7.4500000000000037      46.562500000000014      61.462500000000006
   157   1      9.3125000000000071      44.700000000000017      61.462500000000006
   158   1      9.3125000000000071      46.562500000000014      59.600000000000009
   159   1      9.3125000000000071      44.700000000000017      65.187500000000014
   160   1      9.3125000000000071      46.562500000000014       63.32500000000001
   161   1      7.4500000000000037      50.287500000000001      39.112500000000011
   162   1      9.3125000000000071      48.425000000000004      39.112500000000011
   163   1      9.3125000000000071      50.287500000000001      37.250000000000014
   164   1      7.4500000000000037      48.425000000000004      40.975000000000009
   165   1      7.4500000000000037      50.287500000000001      42.837500000000006
   166   1      9.3125000000000071      48.425000000000004      42.837500000000006
   167   1      9.3125000000000071      50.287500000000001      40.975000000000009
   168   1      7.4500000000000037      48.425000000000004      44.700000000000017
   169   1      7.4500000000000037      50.287500000000001      46.562500000000014
   170   1      9.3125000000000071      48.425000000000004      46.562500000000014
   171   1      9.3125000000000071      50.287500000000001      44.700000000000017
   172   1      7.4500000000000037      48.425000000000004      48.425000000000004
   173   1      7.4500000000000037      50.287500000000001      50.287500000000001
   174   1      9.3125000000000071      48.425000000000004      50.287500000000001
   175   1      9.3125000000000071      50.287500000000001      48.425000000000004
   176   1      7.4500000000000037      48.425000000000004      52.150000000000013
   177   1      7.4500000000000037      50.287500000000001       54.01250000000001
   178   1      9.3125000000000071      48.425000000000004       54.01250000000001
   179   1      9.3125000000000071      50.287500000000001      52.150000000000013
   180   1      7.4500000000000037      48.425000000000004      55.875000000000014
   181   1      7.4500000000000037      50.287500000000001      57.737500000000011
   182   1      9.3125000000000071      48.425000000000004      57.737500000000011
   183   1      9.3125000000000071      50.287500000000001      55.875000000000014
   184   1      7.4500000000000037      48.425000000000004      59.600000000000009
   185   1      7.4500000000000037      50.287500000000001      61.462500000000006
   186   1      9.3125000000000071      48.425000000000004      61.462500000000006
   187   1      9.3125000000000071      50.287500000000001      59.600000000000009
   188   1      7.4500000000000037      48.425000000000004       63.32500000000001
   189   1      7.4500000000000037      50.287500000000001      65.187500000000014
   190   1      9.3125000000000071      48.425000000000004      65.187500000000014
   191   1      9.3125000000000071      50.287500000000001       63.32500000000001
   192   1      9.3125000000000071      50.287500000000001      67.050000000000011
   193   1      9.3125000000000071      52.150000000000013      35.387500000000003
   194   1      7.4500000000000037       54.01250000000001      39.112500000000011
   195   1      9.3125000000000071      52.150000000000013      39.112500000000011
   196   1      9.3125000000000071       54.01250000000001      37.250000000000014
   197   1      7.4500000000000037      52.150000000000013      40.975000000000009
   198   1      7.4500000000000037       54.01250000000001      42.837500000000006
   199   1      9.3125000000000071      52.150000000000013      42.837500000000006
   200   1      9.3125000000000071       54.01250000000001      40.975000000000009
   201   1      7.4500000000000037      52.150000000000013      44.700000000000017
   202   1      7.4500000000000037       54.01250000000001      46.562500000000014
   203   1      9.3125000000000071      52.150000000000013      46.562500000000014
   204   1      9.3125000000000071       54.01250000000001      44.700000000000017
   205   1      7.4500000000000037      52.150000000000013      48.425000000000004
   206   1      7.4500000000000037       54.01250000000001      50.287500000000001
   207   1      9.3125000000000071      52.150000000000013      50.287500000000001
   208   1      9.3125000000000071       54.01250000000001      48.425000000000004
   209   1      7.4500000000000037      52.150000000000013      52.150000000000013
   210   1      7.4500000000000037       54.01250000000001       54.01250000000001
   211   1      9.3125000000000071      52.150000000000013       54.01250000000001
   212   1      9.3125000000000071       54.01250000000001      52.150000000000013
   213   1      7.4500000000000037      52.150000000000013      55.875000000000014
   214   1      7.4500000000000037       54.01250000000001      57.737500000000011
   215   1      9.3125000000000071      52.150000000000013      57.737500000000011
   216   1      9.3125000000000071       54.01250000000001      55.875000000000014
   217   1      7.4500000000000037      52.150000000000013      59.600000000000009
   218   1      7.4500000000000037       54.01250000000001      61.462500000000006
   219   1      9.3125000000000071      52.150000000000013      61.462500000000006
   220   1      9.3125000000000071       54.01250000000001      59.600000000000009
   221   1      7.4500000000000037      52.150000000000013       63.32500000000001
   222   1      7.4500000000000037       54.01250000000001      65.187500000000014
   223   1      9.3125000000000071      52.150000000000013      65.187500000000014
   224   1      9.3125000000000071       54.01250000000001       63.32500000000001
   225   1      9.3125000000000071      52.150000000000013      68.912500000000009
   226   1      9.3125000000000071       54.01250000000001      67.050000000000011
   227   1      9.3125000000000071      55.875000000000014      39.112500000000011
   228   1      7.4500000000000037      55.875000000000014      40.975000000000009
   229   1      7.4500000000000037      57.737500000000011      42.837500000000006
   230   1      9.3125000000000071      55.875000000000014      42.837500000000006
   231   1      9.3125000000000071      57.737500000000011      40.975000000000009
   232   1      7.4500000000000037      55.875000000000014      44.700000000000017
   233   1      7.4500000000000037      57.737500000000011      46.562500000000014
   234   1      9.3125000000000071      55.875000000000014      46.562500000000014
   235   1      9.3125000000000071      57.737500000000011      44.700000000000017
   236   1      7.4500000000000037      55.875000000000014      48.425000000000004
   237   1      7.4500000000000037      57.737500000000011      50.287500000000001
   238   1      9.3125000000000071      55.875000000000014      50.287500000000001
   239   1      9.3125000000000071      57.737500000000011      48.425000000000004
   240   1      7.4500000000000037      55.875000000000014      52.150000000000013
   241   1      7.4500000000000037      57.737500000000011       54.01250000000001
   242   1      9.3125000000000071      55.875000000000014       54.01250000000001
   243   1      9.3125000000000071      57.737500000000011      52.150000000000013
   244   1      7.4500000000000037      55.875000000000014      55.875000000000014
   245   1      7.4500000000000037      57.737500000000011      57.737500000000011
   246   1      9.3125000000000071      55.875000000000014      57.737500000000011
   247   1      9.3125000000000071      57.737500000000011      55.875000000000014
   248   1      7.4500000000000037      55.875000000000014      59.600000000000009
   249   1      7.4500000000000037      57.737500000000011      61.462500000000006
   250   1      9.3125000000000071      55.875000000000014      61.462500000000006
   251   1      9.3125000000000071      57.737500000000011      59.600000000000009
   252   1      7.4500000000000037      55.875000000000014       63.32500000000001
   253   1      9.3125000000000071      55.875000000000014      65.187500000000014
   254   1      9.3125000000000071      57.737500000000011       63.32500000000001
   255   1      9.3125000000000071      59.600000000000009      39.112500000000011
   256   1      7.4500000000000037      61.462500000000006      42.837500000000006
   257   1      9.3125000000000071      59.600000000000009      42.837500000000006
   258   1      9.3125000000000071      61.462500000000006      40.975000000000009
   259   1      7.4500000000000037      59.600000000000009      44.700000000000017
   260   1      7.4500000000000037      61.462500000000006      46.562500000000014
   261   1      9.3125000000000071      59.600000000000009      46.562500000000014
   262   1      9.3125000000000071      61.462500000000006      44.700000000000017
   263   1      7.4500000000000037      59.600000000000009      48.425000000000004
   264   1      7.4500000000000037      61.462500000000006      50.287500000000001
   265   1      9.3125000000000071      59.600000000000009      50.287500000000001
   266   1      9.3125000000000071      61.462500000000006      48.425000000000004
   267   1      7.4500000000000037      59.600000000000009      52.150000000000013
   268   1      7.4500000000000037      61.462500000000006       54.01250000000001
   269   1      9.3125000000000071      59.600000000000009       54.01250000000001
   270   1      9.3125000000000071      61.462500000000006      52.150000000000013
   271   1      7.4500000000000037      59.600000000000009      55.875000000000014
   272   1      7.4500000000000037      61.462500000000006      57.737500000000011
   273   1      9.3125000000000071      59.600000000000009      57.737500000000011
   274   1      9.3125000000000071      61.462500000000006      55.875000000000014
   275   1      7.4500000000000037      59.600000000000009      59.600000000000009
   276   1      7.4500000000000037      61.462500000000006      61.462500000000006
   277   1      9.3125000000000071      59.600000000000009      61.462500000000006
   278   1      9.3125000000000071      61.462500000000006      59.600000000000009
   279   1      9.3125000000000071      59.600000000000009      65.187500000000014
   280   1      9.3125000000000071      61.462500000000006       63.32500000000001
   281   1      9.3125000000000071       63.32500000000001      42.837500000000006
   282   1      9.3125000000000071       63.32500000000001      46.562500000000014
   283   1      9.3125000000000071      65.187500000000014      44.700000000000017
   284   1      7.4500000000000037       63.32500000000001      48.425000000000004
   285   1      7.4500000000000037      65.187500000000014      50.287500000000001
   286   1      9.3125000000000071       63.32500000000001      50.287500000000001
   287   1      9.3125000000000071      65.187500000000014      48.425000000000004
   288   1      7.4500000000000037       63.32500000000001      52.150000000000013
   289   1      7.4500000000000037      65.187500000000014       54.01250000000001
   290   1      9.3125000000000071       63.32500000000001       54.01250000000001
   291   1      9.3125000000000071      65.187500000000014      52.150000000000013
   292   1      7.4500000000000037       63.32500000000001      55.875000000000014
   293   1      9.3125000000000071       63.32500000000001      57.737500000000011
   294   1      9.3125000000000071      65.187500000000014      55.875000000000014
   295   1      9.3125000000000071       63.32500000000001      61.462500000000006
   296   1      9.3125000000000071      65.187500000000014      59.600000000000009
   297   1      9.3125000000000071      67.050000000000011      50.287500000000001
   298   1      9.3125000000000071      67.050000000000011       54.01250000000001
   299   1      9.3125000000000071      68.912500000000009      52.150000000000013
   300   1      13.037500000000009      31.662500000000005      48.425000000000004
   301   1      13.037500000000009      31.662500000000005      52.150000000000013
   302   1      13.037500000000009      31.662500000000005      55.875000000000014
   303   1      13.037500000000009      35.387500000000003      40.975000000000009
   304   1      11.175000000000004      35.387500000000003      46.562500000000014
   305   1      13.037500000000009      33.525000000000006      46.562500000000014
   306   1      13.037500000000009      35.387500000000003      44.700000000000017
   307   1      11.175000000000004      35.387500000000003      50.287500000000001
   308   1      13.037500000000009      33.525000000000006      50.287500000000001
   309   1      13.037500000000009      35.387500000000003      48.425000000000004
   310   1      11.175000000000004      33.525000000000006      52.150000000000013
   311   1      11.175000000000004      35.387500000000003       54.01250000000001
   312   1      13.037500000000009      33.525000000000006       54.01250000000001
   313   1      13.037500000000009      35.387500000000003      52.150000000000013
   314   1      11.175000000000004      35.387500000000003      57.737500000000011
   315   1      13.037500000000009      33.525000000000006      57.737500000000011
   316   1      13.037500000000009      35.387500000000003      55.875000000000014
   317   1      13.037500000000009      35.387500000000003      59.600000000000009
   318   1      13.037500000000009      35.387500000000003       63.32500000000001
   319   1      11.175000000000004      39.112500000000011      39.112500000000011
   320   1      13.037500000000009      37.250000000000014      39.112500000000011
   321   1      13.037500000000009      39.112500000000011      37.250000000000014
   322   1      11.175000000000004      39.112500000000011      42.837500000000006
   323   1      13.037500000000009      37.250000000000014      42.837500000000006
   324   1      13.037500000000009      39.112500000000011      40.975000000000009
   325   1      11.175000000000004      37.250000000000014      44.700000000000017
   326   1      11.175000000000004      39.112500000000011      46.562500000000014
   327   1      13.037500000000009      37.250000000000014      46.562500000000014
   328   1      13.037500000000009      39.112500000000011      44.700000000000017
   329   1      11.175000000000004      37.250000000000014      48.425000000000004
   330   1      11.175000000000004      39.112500000000011      50.287500000000001
   331   1      13.037500000000009      37.250000000000014      50.287500000000001
   332   1      13.037500000000009      39.112500000000011      48.425000000000004
   333   1      11.175000000000004      37.250000000000014      52.150000000000013
   334   1      11.175000000000004      39.112500000000011       54.01250000000001
   335   1      13.037500000000009      37.250000000000014       54.01250000000001
   336   1      13.037500000000009      39.112500000000011      52.150000000000013
   337   1      11.175000000000004      37.250000000000014      55.875000000000014
   338   1      11.175000000000004      39.112500000000011      57.737500000000011
   339   1      13.037500000000009      37.250000000000014      57.737500000000011
   340   1      13.037500000000009      39.112500000000011      55.875000000000014
   341   1      11.175000000000004      37.250000000000014      59.600000000000009
   342   1      11.175000000000004      39.112500000000011      61.462500000000006
   343   1      13.037500000000009      37.250000000000014      61.462500000000006
   344   1      13.037500000000009      39.112500000000011      59.600000000000009
   345   1      11.175000000000004      39.112500000000011      65.187500000000014
   346   1      13.037500000000009      37.250000000000014      65.187500000000014
   347   1      13.037500000000009      39.112500000000011       63.32500000000001
   348   1      13.037500000000009      39.112500000000011      67.050000000000011
   349   1      13.037500000000009      40.975000000000009      35.387500000000003
   350   1      11.175000000000004      42.837500000000006      39.112500000000011
   351   1      13.037500000000009      40.975000000000009      39.112500000000011
   352   1      13.037500000000009      42.837500000000006      37.250000000000014
   353   1      11.175000000000004      40.975000000000009      40.975000000000009
   354   1      11.175000000000004      42.837500000000006      42.837500000000006
   355   1      13.037500000000009      40.975000000000009      42.837500000000006
   356   1      13.037500000000009      42.837500000000006      40.975000000000009
   357   1      11.175000000000004      40.975000000000009      44.700000000000017
   358   1      11.175000000000004      42.837500000000006      46.562500000000014