model_files/PdCu/PdCu_30000/PdCu_532/PdCu_532_fcc_30213_temp.data (written by ASE) 

30213 	 atoms 
2  atom types
0.0                     107  xlo xhi
0.0                     107  ylo yhi
0.0                     107  zlo zhi


Atoms 

     1   1      1.8874999999999955      47.187499999999986      52.849999999999994
     2   1      1.8874999999999955      49.074999999999996      50.962499999999999
     3   1      1.8874999999999955      50.962499999999999      49.074999999999996
     4   1      1.8874999999999955      49.074999999999996      54.737499999999997
     5   1      1.8874999999999955      50.962499999999999      52.849999999999994
     6   1      1.8874999999999955      50.962499999999999      56.624999999999986
     7   1      1.8874999999999955      52.849999999999994      47.187499999999986
     8   1      1.8874999999999955      52.849999999999994      50.962499999999999
     9   1      1.8874999999999955      54.737499999999997      49.074999999999996
    10   1      106.99999999999999      52.849999999999994      52.849999999999994
    11   1      1.8874999999999955      52.849999999999994      54.737499999999997
    12   1      1.8874999999999955      54.737499999999997      52.849999999999994
    13   1      1.8874999999999955      52.849999999999994      58.512499999999989
    14   1      1.8874999999999955      54.737499999999997      56.624999999999986
    15   1      1.8874999999999955      56.624999999999986      50.962499999999999
    16   1      1.8874999999999955      56.624999999999986      54.737499999999997
    17   1      1.8874999999999955      58.512499999999989      52.849999999999994
    18   1      5.6624999999999934      43.412499999999987      49.074999999999996
    19   1      5.6624999999999934      43.412499999999987      52.849999999999994
    20   1      5.6624999999999934      43.412499999999987      56.624999999999986
    21   1      5.6624999999999934      45.299999999999983      47.187499999999986
    22   1      5.6624999999999934      47.187499999999986      45.299999999999983
    23   1       3.774999999999991      47.187499999999986      50.962499999999999
    24   1      5.6624999999999934      45.299999999999983      50.962499999999999
    25   1      5.6624999999999934      47.187499999999986      49.074999999999996
    26   1       3.774999999999991      45.299999999999983      52.849999999999994
    27   1       3.774999999999991      47.187499999999986      54.737499999999997
    28   1      5.6624999999999934      45.299999999999983      54.737499999999997
    29   1      5.6624999999999934      47.187499999999986      52.849999999999994
    30   1      5.6624999999999934      45.299999999999983      58.512499999999989
    31   1      5.6624999999999934      47.187499999999986      56.624999999999986
    32   1      5.6624999999999934      47.187499999999986      60.399999999999984
    33   1      5.6624999999999934      49.074999999999996      43.412499999999987
    34   1       3.774999999999991      50.962499999999999      47.187499999999986
    35   1      5.6624999999999934      49.074999999999996      47.187499999999986
    36   1      5.6624999999999934      50.962499999999999      45.299999999999983
    37   1       3.774999999999991      49.074999999999996      49.074999999999996
    38   1       3.774999999999991      50.962499999999999      50.962499999999999
    39   1      5.6624999999999934      49.074999999999996      50.962499999999999
    40   1      5.6624999999999934      50.962499999999999      49.074999999999996
    41   1       3.774999999999991      49.074999999999996      52.849999999999994
    42   1       3.774999999999991      50.962499999999999      54.737499999999997
    43   1      5.6624999999999934      49.074999999999996      54.737499999999997
    44   1      5.6624999999999934      50.962499999999999      52.849999999999994
    45   1       3.774999999999991      49.074999999999996      56.624999999999986
    46   1       3.774999999999991      50.962499999999999      58.512499999999989
    47   1      5.6624999999999934      49.074999999999996      58.512499999999989
    48   1      5.6624999999999934      50.962499999999999      56.624999999999986
    49   1      5.6624999999999934      49.074999999999996      62.287499999999987
    50   1      5.6624999999999934      50.962499999999999      60.399999999999984
    51   1      5.6624999999999934      52.849999999999994      43.412499999999987
    52   1       3.774999999999991      52.849999999999994      45.299999999999983
    53   1       3.774999999999991      54.737499999999997      47.187499999999986
    54   1      5.6624999999999934      52.849999999999994      47.187499999999986
    55   1      5.6624999999999934      54.737499999999997      45.299999999999983
    56   1       3.774999999999991      52.849999999999994      49.074999999999996
    57   1       3.774999999999991      54.737499999999997      50.962499999999999
    58   1      5.6624999999999934      52.849999999999994      50.962499999999999
    59   1      5.6624999999999934      54.737499999999997      49.074999999999996
    60   1       3.774999999999991      52.849999999999994      52.849999999999994
    61   1       3.774999999999991      54.737499999999997      54.737499999999997
    62   1      5.6624999999999934      52.849999999999994      54.737499999999997
    63   1      5.6624999999999934      54.737499999999997      52.849999999999994
    64   1       3.774999999999991      52.849999999999994      56.624999999999986
    65   1       3.774999999999991      54.737499999999997      58.512499999999989
    66   1      5.6624999999999934      52.849999999999994      58.512499999999989
    67   1      5.6624999999999934      54.737499999999997      56.624999999999986
    68   1       3.774999999999991      52.849999999999994      60.399999999999984
    69   1      5.6624999999999934      52.849999999999994      62.287499999999987
    70   1      5.6624999999999934      54.737499999999997      60.399999999999984
    71   1      5.6624999999999934      56.624999999999986      43.412499999999987
    72   1      5.6624999999999934      56.624999999999986      47.187499999999986
    73   1      5.6624999999999934      58.512499999999989      45.299999999999983
    74   1       3.774999999999991      56.624999999999986      49.074999999999996
    75   1       3.774999999999991      58.512499999999989      50.962499999999999
    76   1      5.6624999999999934      56.624999999999986      50.962499999999999
    77   1      5.6624999999999934      58.512499999999989      49.074999999999996
    78   1       3.774999999999991      56.624999999999986      52.849999999999994
    79   1       3.774999999999991      58.512499999999989      54.737499999999997
    80   1      5.6624999999999934      56.624999999999986      54.737499999999997
    81   1      5.6624999999999934      58.512499999999989      52.849999999999994
    82   1       3.774999999999991      56.624999999999986      56.624999999999986
    83   1      5.6624999999999934      56.624999999999986      58.512499999999989
    84   1      5.6624999999999934      58.512499999999989      56.624999999999986
    85   1      5.6624999999999934      56.624999999999986      62.287499999999987
    86   1      5.6624999999999934      58.512499999999989      60.399999999999984
    87   1      5.6624999999999934      60.399999999999984      47.187499999999986
    88   1      5.6624999999999934      60.399999999999984      50.962499999999999
    89   1      5.6624999999999934      62.287499999999987      49.074999999999996
    90   1       3.774999999999991      60.399999999999984      52.849999999999994
    91   1      5.6624999999999934      60.399999999999984      54.737499999999997
    92   1      5.6624999999999934      62.287499999999987      52.849999999999994
    93   1      5.6624999999999934      60.399999999999984      58.512499999999989
    94   1      5.6624999999999934      62.287499999999987      56.624999999999986
    95   1      9.4374999999999929       35.86249999999999      52.849999999999994
    96   1      9.4374999999999929      39.637499999999989      45.299999999999983
    97   1      7.5499999999999972      39.637499999999989      50.962499999999999
    98   1      9.4374999999999929      37.749999999999986      50.962499999999999
    99   1      9.4374999999999929      39.637499999999989      49.074999999999996
   100   1      7.5499999999999972      37.749999999999986      52.849999999999994
   101   1      7.5499999999999972      39.637499999999989      54.737499999999997
   102   1      9.4374999999999929      37.749999999999986      54.737499999999997
   103   1      9.4374999999999929      39.637499999999989      52.849999999999994
   104   1      9.4374999999999929      39.637499999999989      56.624999999999986
   105   1      9.4374999999999929      39.637499999999989      60.399999999999984
   106   1      9.4374999999999929      41.524999999999984      43.412499999999987
   107   1      9.4374999999999929      43.412499999999987      41.524999999999984
   108   1      7.5499999999999972      43.412499999999987      47.187499999999986
   109   1      9.4374999999999929      41.524999999999984      47.187499999999986
   110   1      9.4374999999999929      43.412499999999987      45.299999999999983
   111   1      7.5499999999999972      41.524999999999984      49.074999999999996
   112   1      7.5499999999999972      43.412499999999987      50.962499999999999
   113   1      9.4374999999999929      41.524999999999984      50.962499999999999
   114   1      9.4374999999999929      43.412499999999987      49.074999999999996
   115   1      7.5499999999999972      41.524999999999984      52.849999999999994
   116   1      7.5499999999999972      43.412499999999987      54.737499999999997
   117   1      9.4374999999999929      41.524999999999984      54.737499999999997
   118   1      9.4374999999999929      43.412499999999987      52.849999999999994
   119   1      7.5499999999999972      41.524999999999984      56.624999999999986
   120   1      7.5499999999999972      43.412499999999987      58.512499999999989
   121   1      9.4374999999999929      41.524999999999984      58.512499999999989
   122   1      9.4374999999999929      43.412499999999987      56.624999999999986
   123   1      9.4374999999999929      41.524999999999984      62.287499999999987
   124   1      9.4374999999999929      43.412499999999987      60.399999999999984
   125   1      9.4374999999999929      43.412499999999987      64.174999999999997
   126   1      9.4374999999999929      45.299999999999983      39.637499999999989
   127   1      7.5499999999999972      47.187499999999986      43.412499999999987
   128   1      9.4374999999999929      45.299999999999983      43.412499999999987
   129   1      9.4374999999999929      47.187499999999986      41.524999999999984
   130   1      7.5499999999999972      45.299999999999983      45.299999999999983
   131   1      7.5499999999999972      47.187499999999986      47.187499999999986
   132   1      9.4374999999999929      45.299999999999983      47.187499999999986
   133   1      9.4374999999999929      47.187499999999986      45.299999999999983
   134   1      7.5499999999999972      45.299999999999983      49.074999999999996
   135   1      7.5499999999999972      47.187499999999986      50.962499999999999
   136   1      9.4374999999999929      45.299999999999983      50.962499999999999
   137   1      9.4374999999999929      47.187499999999986      49.074999999999996
   138   1      7.5499999999999972      45.299999999999983      52.849999999999994
   139   1      7.5499999999999972      47.187499999999986      54.737499999999997
   140   1      9.4374999999999929      45.299999999999983      54.737499999999997
   141   1      9.4374999999999929      47.187499999999986      52.849999999999994
   142   1      7.5499999999999972      45.299999999999983      56.624999999999986
   143   1      7.5499999999999972      47.187499999999986      58.512499999999989
   144   1      9.4374999999999929      45.299999999999983      58.512499999999989
   145   1      9.4374999999999929      47.187499999999986      56.624999999999986
   146   1      7.5499999999999972      45.299999999999983      60.399999999999984
   147   1      7.5499999999999972      47.187499999999986      62.287499999999987
   148   1      9.4374999999999929      45.299999999999983      62.287499999999987
   149   1      9.4374999999999929      47.187499999999986      60.399999999999984
   150   1      9.4374999999999929      45.299999999999983                 66.0625
   151   1      9.4374999999999929      47.187499999999986      64.174999999999997
   152   1      7.5499999999999972      50.962499999999999      39.637499999999989
   153   1      9.4374999999999929      49.074999999999996      39.637499999999989
   154   1      9.4374999999999929      50.962499999999999      37.749999999999986
   155   1      7.5499999999999972      49.074999999999996      41.524999999999984
   156   1      7.5499999999999972      50.962499999999999      43.412499999999987
   157   1      9.4374999999999929      49.074999999999996      43.412499999999987
   158   1      9.4374999999999929      50.962499999999999      41.524999999999984
   159   1      7.5499999999999972      49.074999999999996      45.299999999999983
   160   1      7.5499999999999972      50.962499999999999      47.187499999999986
   161   1      9.4374999999999929      49.074999999999996      47.187499999999986
   162   1      9.4374999999999929      50.962499999999999      45.299999999999983
   163   1      7.5499999999999972      49.074999999999996      49.074999999999996
   164   1      7.5499999999999972      50.962499999999999      50.962499999999999
   165   1      9.4374999999999929      49.074999999999996      50.962499999999999
   166   1      9.4374999999999929      50.962499999999999      49.074999999999996
   167   1      7.5499999999999972      49.074999999999996      52.849999999999994
   168   1      7.5499999999999972      50.962499999999999      54.737499999999997
   169   1      9.4374999999999929      49.074999999999996      54.737499999999997
   170   1      9.4374999999999929      50.962499999999999      52.849999999999994
   171   1      7.5499999999999972      49.074999999999996      56.624999999999986
   172   1      7.5499999999999972      50.962499999999999      58.512499999999989
   173   1      9.4374999999999929      49.074999999999996      58.512499999999989
   174   1      9.4374999999999929      50.962499999999999      56.624999999999986
   175   1      7.5499999999999972      49.074999999999996      60.399999999999984
   176   1      7.5499999999999972      50.962499999999999      62.287499999999987
   177   1      9.4374999999999929      49.074999999999996      62.287499999999987
   178   1      9.4374999999999929      50.962499999999999      60.399999999999984
   179   1      7.5499999999999972      49.074999999999996      64.174999999999997
   180   1      7.5499999999999972      50.962499999999999                 66.0625
   181   1      9.4374999999999929      49.074999999999996                 66.0625
   182   1      9.4374999999999929      50.962499999999999      64.174999999999997
   183   1      9.4374999999999929      50.962499999999999      67.949999999999989
   184   1      9.4374999999999929      52.849999999999994       35.86249999999999
   185   1      7.5499999999999972      52.849999999999994      37.749999999999986
   186   1      7.5499999999999972      54.737499999999997      39.637499999999989
   187   1      9.4374999999999929      52.849999999999994      39.637499999999989
   188   1      9.4374999999999929      54.737499999999997      37.749999999999986
   189   1      7.5499999999999972      52.849999999999994      41.524999999999984
   190   1      7.5499999999999972      54.737499999999997      43.412499999999987
   191   1      9.4374999999999929      52.849999999999994      43.412499999999987
   192   1      9.4374999999999929      54.737499999999997      41.524999999999984
   193   1      7.5499999999999972      52.849999999999994      45.299999999999983
   194   1      7.5499999999999972      54.737499999999997      47.187499999999986
   195   1      9.4374999999999929      52.849999999999994      47.187499999999986
   196   1      9.4374999999999929      54.737499999999997      45.299999999999983
   197   1      7.5499999999999972      52.849999999999994      49.074999999999996
   198   1      7.5499999999999972      54.737499999999997      50.962499999999999
   199   1      9.4374999999999929      52.849999999999994      50.962499999999999
   200   1      9.4374999999999929      54.737499999999997      49.074999999999996
   201   1      7.5499999999999972      52.849999999999994      52.849999999999994
   202   1      7.5499999999999972      54.737499999999997      54.737499999999997
   203   1      9.4374999999999929      52.849999999999994      54.737499999999997
   204   1      9.4374999999999929      54.737499999999997      52.849999999999994
   205   1      7.5499999999999972      52.849999999999994      56.624999999999986
   206   1      7.5499999999999972      54.737499999999997      58.512499999999989
   207   1      9.4374999999999929      52.849999999999994      58.512499999999989
   208   1      9.4374999999999929      54.737499999999997      56.624999999999986
   209   1      7.5499999999999972      52.849999999999994      60.399999999999984
   210   1      7.5499999999999972      54.737499999999997      62.287499999999987
   211   1      9.4374999999999929      52.849999999999994      62.287499999999987
   212   1      9.4374999999999929      54.737499999999997      60.399999999999984
   213   1      7.5499999999999972      52.849999999999994      64.174999999999997
   214   1      7.5499999999999972      54.737499999999997                 66.0625
   215   1      9.4374999999999929      52.849999999999994                 66.0625
   216   1      9.4374999999999929      54.737499999999997      64.174999999999997
   217   1      7.5499999999999972      52.849999999999994      67.949999999999989
   218   1      9.4374999999999929      52.849999999999994      69.837499999999991
   219   1      9.4374999999999929      54.737499999999997      67.949999999999989
   220   1      9.4374999999999929      56.624999999999986      39.637499999999989
   221   1      7.5499999999999972      56.624999999999986      41.524999999999984
   222   1      7.5499999999999972      58.512499999999989      43.412499999999987
   223   1      9.4374999999999929      56.624999999999986      43.412499999999987
   224   1      9.4374999999999929      58.512499999999989      41.524999999999984
   225   1      7.5499999999999972      56.624999999999986      45.299999999999983
   226   1      7.5499999999999972      58.512499999999989      47.187499999999986
   227   1      9.4374999999999929      56.624999999999986      47.187499999999986
   228   1      9.4374999999999929      58.512499999999989      45.299999999999983
   229   1      7.5499999999999972      56.624999999999986      49.074999999999996
   230   1      7.5499999999999972      58.512499999999989      50.962499999999999
   231   1      9.4374999999999929      56.624999999999986      50.962499999999999
   232   1      9.4374999999999929      58.512499999999989      49.074999999999996
   233   1      7.5499999999999972      56.624999999999986      52.849999999999994
   234   1      7.5499999999999972      58.512499999999989      54.737499999999997
   235   1      9.4374999999999929      56.624999999999986      54.737499999999997
   236   1      9.4374999999999929      58.512499999999989      52.849999999999994
   237   1      7.5499999999999972      56.624999999999986      56.624999999999986
   238   1      7.5499999999999972      58.512499999999989      58.512499999999989
   239   1      9.4374999999999929      56.624999999999986      58.512499999999989
   240   1      9.4374999999999929      58.512499999999989      56.624999999999986
   241   1      7.5499999999999972      56.624999999999986      60.399999999999984
   242   1      7.5499999999999972      58.512499999999989      62.287499999999987
   243   1      9.4374999999999929      56.624999999999986      62.287499999999987
   244   1      9.4374999999999929      58.512499999999989      60.399999999999984
   245   1      7.5499999999999972      56.624999999999986      64.174999999999997
   246   1      9.4374999999999929      56.624999999999986                 66.0625
   247   1      9.4374999999999929      58.512499999999989      64.174999999999997
   248   1      9.4374999999999929      60.399999999999984      39.637499999999989
   249   1      9.4374999999999929      60.399999999999984      43.412499999999987
   250   1      9.4374999999999929      62.287499999999987      41.524999999999984
   251   1      7.5499999999999972      60.399999999999984      45.299999999999983
   252   1      7.5499999999999972      62.287499999999987      47.187499999999986
   253   1      9.4374999999999929      60.399999999999984      47.187499999999986
   254   1      9.4374999999999929      62.287499999999987      45.299999999999983
   255   1      7.5499999999999972      60.399999999999984      49.074999999999996
   256   1      7.5499999999999972      62.287499999999987      50.962499999999999
   257   1      9.4374999999999929      60.399999999999984      50.962499999999999
   258   1      9.4374999999999929      62.287499999999987      49.074999999999996
   259   1      7.5499999999999972      60.399999999999984      52.849999999999994
   260   1      7.5499999999999972      62.287499999999987      54.737499999999997
   261   1      9.4374999999999929      60.399999999999984      54.737499999999997
   262   1      9.4374999999999929      62.287499999999987      52.849999999999994
   263   1      7.5499999999999972      60.399999999999984      56.624999999999986
   264   1      7.5499999999999972      62.287499999999987      58.512499999999989
   265   1      9.4374999999999929      60.399999999999984      58.512499999999989
   266   1      9.4374999999999929      62.287499999999987      56.624999999999986
   267   1      7.5499999999999972      60.399999999999984      60.399999999999984
   268   1      9.4374999999999929      60.399999999999984      62.287499999999987
   269   1      9.4374999999999929      62.287499999999987      60.399999999999984
   270   1      9.4374999999999929      60.399999999999984                 66.0625
   271   1      9.4374999999999929      62.287499999999987      64.174999999999997
   272   1      9.4374999999999929      64.174999999999997      43.412499999999987
   273   1      9.4374999999999929      64.174999999999997      47.187499999999986
   274   1      9.4374999999999929                 66.0625      45.299999999999983
   275   1      7.5499999999999972      64.174999999999997      49.074999999999996
   276   1      7.5499999999999972                 66.0625      50.962499999999999
   277   1      9.4374999999999929      64.174999999999997      50.962499999999999
   278   1      9.4374999999999929                 66.0625      49.074999999999996
   279   1      7.5499999999999972      64.174999999999997      52.849999999999994
   280   1      7.5499999999999972                 66.0625      54.737499999999997
   281   1      9.4374999999999929      64.174999999999997      54.737499999999997
   282   1      9.4374999999999929                 66.0625      52.849999999999994
   283   1      7.5499999999999972      64.174999999999997      56.624999999999986
   284   1      9.4374999999999929      64.174999999999997      58.512499999999989
   285   1      9.4374999999999929                 66.0625      56.624999999999986
   286   1      9.4374999999999929      64.174999999999997      62.287499999999987
   287   1      9.4374999999999929                 66.0625      60.399999999999984
   288   1      9.4374999999999929      67.949999999999989      50.962499999999999
   289   1      7.5499999999999972      67.949999999999989      52.849999999999994
   290   1      9.4374999999999929      67.949999999999989      54.737499999999997
   291   1      9.4374999999999929      69.837499999999991      52.849999999999994
   292   1      13.212499999999991      28.312499999999993      52.849999999999994
   293   1      13.212499999999991      30.199999999999992      50.962499999999999
   294   1      13.212499999999991      32.087499999999999      49.074999999999996
   295   1      13.212499999999991      30.199999999999992      54.737499999999997
   296   1      13.212499999999991      32.087499999999999      52.849999999999994
   297   1      13.212499999999991      32.087499999999999      56.624999999999986
   298   1      13.212499999999991       35.86249999999999      41.524999999999984
   299   1      11.324999999999994       35.86249999999999      47.187499999999986
   300   1      13.212499999999991      33.974999999999994      47.187499999999986
   301   1      13.212499999999991       35.86249999999999      45.299999999999983
   302   1      11.324999999999994      33.974999999999994      49.074999999999996
   303   1      11.324999999999994       35.86249999999999      50.962499999999999
   304   1      13.212499999999991      33.974999999999994      50.962499999999999
   305   1      13.212499999999991       35.86249999999999      49.074999999999996
   306   1      11.324999999999994      33.974999999999994      52.849999999999994
   307   1      11.324999999999994       35.86249999999999      54.737499999999997
   308   1      13.212499999999991      33.974999999999994      54.737499999999997
   309   1      13.212499999999991       35.86249999999999      52.849999999999994
   310   1      11.324999999999994      33.974999999999994      56.624999999999986
   311   1      11.324999999999994       35.86249999999999      58.512499999999989
   312   1      13.212499999999991      33.974999999999994      58.512499999999989
   313   1      13.212499999999991       35.86249999999999      56.624999999999986
   314   1      13.212499999999991       35.86249999999999      60.399999999999984
   315   1      13.212499999999991       35.86249999999999      64.174999999999997
   316   1      13.212499999999991      37.749999999999986      39.637499999999989
   317   1      13.212499999999991      39.637499999999989      37.749999999999986
   318   1      11.324999999999994      39.637499999999989      43.412499999999987
   319   1      13.212499999999991      37.749999999999986      43.412499999999987
   320   1      13.212499999999991      39.637499999999989      41.524999999999984
   321   1      11.324999999999994      37.749999999999986      45.299999999999983
   322   1      11.324999999999994      39.637499999999989      47.187499999999986
   323   1      13.212499999999991      37.749999999999986      47.187499999999986
   324   1      13.212499999999991      39.637499999999989      45.299999999999983
   325   1      11.324999999999994      37.749999999999986      49.074999999999996
   326   1      11.324999999999994      39.637499999999989      50.962499999999999
   327   1      13.212499999999991      37.749999999999986      50.962499999999999
   328   1      13.212499999999991      39.637499999999989      49.074999999999996
   329   1      11.324999999999994      37.749999999999986      52.849999999999994
   330   1      11.324999999999994      39.637499999999989      54.737499999999997
   331   1      13.212499999999991      37.749999999999986      54.737499999999997
   332   1      13.212499999999991      39.637499999999989      52.849999999999994
   333   1      11.324999999999994      37.749999999999986      56.624999999999986
   334   1      11.324999999999994      39.637499999999989      58.512499999999989
   335   1      13.212499999999991      37.749999999999986      58.512499999999989
   336   1      13.212499999999991      39.637499999999989      56.624999999999986
   337   1      11.324999999999994      37.749999999999986      60.399999999999984
   338   1      11.324999999999994      39.637499999999989      62.287499999999987
   339   1      13.212499999999991      37.749999999999986      62.287499999999987
   340   1      13.212499999999991      39.637499999999989      60.399999999999984
   341   1      13.212499999999991      37.749999999999986                 66.0625
   342   1      13.212499999999991      39.637499999999989      64.174999999999997
   343   1      13.212499999999991      39.637499999999989      67.949999999999989
   344   1      13.212499999999991      41.524999999999984       35.86249999999999
   345   1      11.324999999999994      43.412499999999987      39.637499999999989
   346   1      13.212499999999991      41.524999999999984      39.637499999999989
   347   1      13.212499999999991      43.412499999999987      37.749999999999986
   348   1      11.324999999999994      41.524999999999984      41.524999999999984
   349   1      11.324999999999994      43.412499999999987      43.412499999999987
   350   1      13.212499999999991      41.524999999999984      43.412499999999987
   351   1      13.212499999999991      43.412499999999987      41.524999999999984
   352   1      11.324999999999994      41.524999999999984      45.299999999999983
   353   1      11.324999999999994      43.412499999999987      47.187499999999986
   354   1      13.212499999999991      41.524999999999984      47.187499999999986
   355   1      13.212499999999991      43.412499999999987      45.299999999999983
   356   1      11.324999999999994      41.524999999999984      49.074999999999996
   357   1      11.324999999999994      43.412499999999987      50.962499999999999
   358   1      13.212499999999991      41.524999999999984      50.962499999999999