LAMMPS data file via write_data, version 30 Nov 2020, timestep = 0

30389 atoms
3 atom types

0 97 xlo xhi
0 97 ylo yhi
0 97 zlo zhi

Masses

1 63.546
2 55.845
3 58.6934

Atoms # atomic

1 1 7.105427357601002e-15 45.6 47.5 0 0 0
2 1 7.105427357601002e-15 47.5 45.6 0 0 0
5 2 3.8000000000000114 38 39.9 0 0 0
6 3 3.8000000000000114 38 43.7 0 0 0
7 2 3.8000000000000114 38 47.5 0 0 0
10 2 3.8000000000000114 39.9 38 0 0 0
11 3 1.9000000000000057 41.8 41.8 0 0 0
12 1 3.8000000000000114 39.9 41.8 0 0 0
13 1 3.8000000000000114 41.8 39.9 0 0 0
14 2 1.9000000000000057 41.8 45.6 0 0 0
15 1 3.8000000000000114 39.9 45.6 0 0 0
16 3 3.8000000000000114 41.8 43.7 0 0 0
19 1 3.8000000000000114 41.8 47.5 0 0 0
25 1 3.8000000000000114 43.7 38 0 0 0
26 3 1.9000000000000057 45.6 41.8 0 0 0
27 1 3.8000000000000114 43.7 41.8 0 0 0
28 1 3.8000000000000114 45.6 39.9 0 0 0
29 1 1.9000000000000057 43.7 43.7 0 0 0
30 1 1.9000000000000057 45.6 45.6 0 0 0
31 3 3.8000000000000114 43.7 45.6 0 0 0
32 2 3.8000000000000114 45.6 43.7 0 0 0
33 1 1.9000000000000057 43.7 47.5 0 0 0
36 2 3.8000000000000114 45.6 47.5 0 0 0
43 1 3.8000000000000114 47.5 38 0 0 0
45 1 3.8000000000000114 47.5 41.8 0 0 0
47 1 1.9000000000000057 47.5 43.7 0 0 0
49 3 3.8000000000000114 47.5 45.6 0 0 0
51 1 1.9000000000000057 47.5 47.5 0 0 0
90 1 7.600000000000008 30.400000000000006 32.300000000000004 0 0 0
91 1 7.600000000000008 30.400000000000006 36.1 0 0 0
92 1 7.600000000000008 30.400000000000006 39.9 0 0 0
93 1 7.600000000000008 30.400000000000006 43.7 0 0 0
94 2 7.600000000000008 30.400000000000006 47.5 0 0 0
99 1 7.600000000000008 32.300000000000004 30.400000000000006 0 0 0
100 1 5.70000000000001 34.2 34.2 0 0 0
101 2 7.600000000000008 32.300000000000004 34.2 0 0 0
102 3 7.600000000000008 34.2 32.300000000000004 0 0 0
103 1 5.70000000000001 34.2 38 0 0 0
104 3 7.600000000000008 32.300000000000004 38 0 0 0
105 3 7.600000000000008 34.2 36.1 0 0 0
106 3 5.70000000000001 34.2 41.8 0 0 0
107 1 7.600000000000008 32.300000000000004 41.8 0 0 0
108 2 7.600000000000008 34.2 39.9 0 0 0
109 1 5.70000000000001 34.2 45.6 0 0 0
110 1 7.600000000000008 32.300000000000004 45.6 0 0 0
111 1 7.600000000000008 34.2 43.7 0 0 0
114 1 7.600000000000008 34.2 47.5 0 0 0
126 2 7.600000000000008 36.1 30.400000000000006 0 0 0
127 3 5.70000000000001 38 34.2 0 0 0
128 2 7.600000000000008 36.1 34.2 0 0 0
129 2 7.600000000000008 38 32.300000000000004 0 0 0
130 3 5.70000000000001 36.1 36.1 0 0 0
131 2 5.70000000000001 38 38 0 0 0
132 3 7.600000000000008 36.1 38 0 0 0
133 1 7.600000000000008 38 36.1 0 0 0
134 2 5.70000000000001 36.1 39.9 0 0 0
135 1 5.70000000000001 38 41.8 0 0 0
136 3 7.600000000000008 36.1 41.8 0 0 0
137 1 7.600000000000008 38 39.9 0 0 0
138 1 5.70000000000001 36.1 43.7 0 0 0
139 2 5.70000000000001 38 45.6 0 0 0
140 1 7.600000000000008 36.1 45.6 0 0 0
141 1 7.600000000000008 38 43.7 0 0 0
142 1 5.70000000000001 36.1 47.5 0 0 0
145 1 7.600000000000008 38 47.5 0 0 0
160 2 7.600000000000008 39.9 30.400000000000006 0 0 0
161 1 5.70000000000001 41.8 34.2 0 0 0
162 1 7.600000000000008 39.9 34.2 0 0 0
163 1 7.600000000000008 41.8 32.300000000000004 0 0 0
164 2 5.70000000000001 39.9 36.1 0 0 0
165 1 5.70000000000001 41.8 38 0 0 0
166 1 7.600000000000008 39.9 38 0 0 0
167 3 7.600000000000008 41.8 36.1 0 0 0
168 1 5.70000000000001 39.9 39.9 0 0 0
169 1 5.70000000000001 41.8 41.8 0 0 0
170 3 7.600000000000008 39.9 41.8 0 0 0
171 1 7.600000000000008 41.8 39.9 0 0 0
172 1 5.70000000000001 39.9 43.7 0 0 0
173 1 5.70000000000001 41.8 45.6 0 0 0
174 1 7.600000000000008 39.9 45.6 0 0 0
175 3 7.600000000000008 41.8 43.7 0 0 0
176 1 5.70000000000001 39.9 47.5 0 0 0
179 1 7.600000000000008 41.8 47.5 0 0 0
194 1 7.600000000000008 43.7 30.400000000000006 0 0 0
195 1 5.70000000000001 45.6 34.2 0 0 0
196 2 7.600000000000008 43.7 34.2 0 0 0
197 1 7.600000000000008 45.6 32.300000000000004 0 0 0
198 1 5.70000000000001 43.7 36.1 0 0 0
199 1 5.70000000000001 45.6 38 0 0 0
200 2 7.600000000000008 43.7 38 0 0 0
201 1 7.600000000000008 45.6 36.1 0 0 0
202 1 5.70000000000001 43.7 39.9 0 0 0
203 3 5.70000000000001 45.6 41.8 0 0 0
204 3 7.600000000000008 43.7 41.8 0 0 0
205 1 7.600000000000008 45.6 39.9 0 0 0
206 1 5.70000000000001 43.7 43.7 0 0 0
207 1 5.70000000000001 45.6 45.6 0 0 0
208 1 7.600000000000008 43.7 45.6 0 0 0
209 1 7.600000000000008 45.6 43.7 0 0 0
210 1 5.70000000000001 43.7 47.5 0 0 0
213 1 7.600000000000008 45.6 47.5 0 0 0
228 3 7.600000000000008 47.5 30.400000000000006 0 0 0
230 1 7.600000000000008 47.5 34.2 0 0 0
232 1 5.70000000000001 47.5 36.1 0 0 0
234 1 7.600000000000008 47.5 38 0 0 0
236 1 5.70000000000001 47.5 39.9 0 0 0
238 3 7.600000000000008 47.5 41.8 0 0 0
240 3 5.70000000000001 47.5 43.7 0 0 0
242 2 7.600000000000008 47.5 45.6 0 0 0
244 2 5.70000000000001 47.5 47.5 0 0 0
383 1 11.400000000000006 22.800000000000004 24.700000000000003 0 0 0
384 1 11.400000000000006 22.800000000000004 28.5 0 0 0
385 1 11.400000000000006 22.800000000000004 32.300000000000004 0 0 0
386 1 11.400000000000006 22.800000000000004 36.1 0 0 0
387 1 11.400000000000006 22.800000000000004 39.9 0 0 0
388 1 11.400000000000006 22.800000000000004 43.7 0 0 0
389 3 11.400000000000006 22.800000000000004 47.5 0 0 0
396 1 11.400000000000006 24.700000000000003 22.800000000000004 0 0 0
397 1 9.500000000000007 26.6 26.6 0 0 0
398 1 11.400000000000006 24.700000000000003 26.6 0 0 0
399 1 11.400000000000006 26.6 24.700000000000003 0 0 0
400 1 9.500000000000007 26.6 30.400000000000006 0 0 0
401 1 11.400000000000006 24.700000000000003 30.400000000000006 0 0 0
402 1 11.400000000000006 26.6 28.5 0 0 0
403 1 9.500000000000007 26.6 34.2 0 0 0
404 3 11.400000000000006 24.700000000000003 34.2 0 0 0
405 3 11.400000000000006 26.6 32.300000000000004 0 0 0
406 1 9.500000000000007 26.6 38 0 0 0
407 1 11.400000000000006 24.700000000000003 38 0 0 0
408 3 11.400000000000006 26.6 36.1 0 0 0
409 2 9.500000000000007 26.6 41.8 0 0 0
410 1 11.400000000000006 24.700000000000003 41.8 0 0 0
411 2 11.400000000000006 26.6 39.9 0 0 0
412 2 9.500000000000007 26.6 45.6 0 0 0
413 3 11.400000000000006 24.700000000000003 45.6 0 0 0
414 2 11.400000000000006 26.6 43.7 0 0 0
417 3 11.400000000000006 26.6 47.5 0 0 0
435 2 11.400000000000006 28.5 22.800000000000004 0 0 0
436 1 9.500000000000007 30.400000000000006 26.6 0 0 0
437 1 11.400000000000006 28.5 26.6 0 0 0
438 1 11.400000000000006 30.400000000000006 24.700000000000003 0 0 0
439 1 9.500000000000007 28.5 28.5 0 0 0
440 3 9.500000000000007 30.400000000000006 30.400000000000006 0 0 0
441 1 11.400000000000006 28.5 30.400000000000006 0 0 0
442 1 11.400000000000006 30.400000000000006 28.5 0 0 0
443 1 9.500000000000007 28.5 32.300000000000004 0 0 0
444 1 9.500000000000007 30.400000000000006 34.2 0 0 0
445 1 11.400000000000006 28.5 34.2 0 0 0
446 1 11.400000000000006 30.400000000000006 32.300000000000004 0 0 0
447 1 9.500000000000007 28.5 36.1 0 0 0
448 2 9.500000000000007 30.400000000000006 38 0 0 0
449 2 11.400000000000006 28.5 38 0 0 0
450 2 11.400000000000006 30.400000000000006 36.1 0 0 0
451 1 9.500000000000007 28.5 39.9 0 0 0
452 2 9.500000000000007 30.400000000000006 41.8 0 0 0
453 3 11.400000000000006 28.5 41.8 0 0 0
454 1 11.400000000000006 30.400000000000006 39.9 0 0 0
455 1 9.500000000000007 28.5 43.7 0 0 0
456 3 9.500000000000007 30.400000000000006 45.6 0 0 0
457 1 11.400000000000006 28.5 45.6 0 0 0
458 3 11.400000000000006 30.400000000000006 43.7 0 0 0
459 2 9.500000000000007 28.5 47.5 0 0 0
462 1 11.400000000000006 30.400000000000006 47.5 0 0 0
485 1 11.400000000000006 32.300000000000004 22.800000000000004 0 0 0
486 1 9.500000000000007 34.2 26.6 0 0 0
487 1 11.400000000000006 32.300000000000004 26.6 0 0 0
488 1 11.400000000000006 34.2 24.700000000000003 0 0 0
489 1 9.500000000000007 32.300000000000004 28.5 0 0 0
490 3 9.500000000000007 34.2 30.400000000000006 0 0 0
491 3 11.400000000000006 32.300000000000004 30.400000000000006 0 0 0
492 2 11.400000000000006 34.2 28.5 0 0 0
493 1 9.500000000000007 32.300000000000004 32.300000000000004 0 0 0
494 2 9.500000000000007 34.2 34.2 0 0 0
495 2 11.400000000000006 32.300000000000004 34.2 0 0 0
496 3 11.400000000000006 34.2 32.300000000000004 0 0 0
497 1 9.500000000000007 32.300000000000004 36.1 0 0 0
498 1 9.500000000000007 34.2 38 0 0 0
499 1 11.400000000000006 32.300000000000004 38 0 0 0
500 2 11.400000000000006 34.2 36.1 0 0 0
501 1 9.500000000000007 32.300000000000004 39.9 0 0 0
502 2 9.500000000000007 34.2 41.8 0 0 0
503 1 11.400000000000006 32.300000000000004 41.8 0 0 0
504 3 11.400000000000006 34.2 39.9 0 0 0
505 1 9.500000000000007 32.300000000000004 43.7 0 0 0
506 1 9.500000000000007 34.2 45.6 0 0 0
507 1 11.400000000000006 32.300000000000004 45.6 0 0 0
508 2 11.400000000000006 34.2 43.7 0 0 0
509 3 9.500000000000007 32.300000000000004 47.5 0 0 0
512 3 11.400000000000006 34.2 47.5 0 0 0
535 1 11.400000000000006 36.1 22.800000000000004 0 0 0
536 1 9.500000000000007 38 26.6 0 0 0
537 1 11.400000000000006 36.1 26.6 0 0 0
538 3 11.400000000000006 38 24.700000000000003 0 0 0
539 1 9.500000000000007 36.1 28.5 0 0 0
540 1 9.500000000000007 38 30.400000000000006 0 0 0
541 3 11.400000000000006 36.1 30.400000000000006 0 0 0
542 1 11.400000000000006 38 28.5 0 0 0
543 1 9.500000000000007 36.1 32.300000000000004 0 0 0
544 1 9.500000000000007 38 34.2 0 0 0
545 1 11.400000000000006 36.1 34.2 0 0 0
546 1 11.400000000000006 38 32.300000000000004 0 0 0
547 3 9.500000000000007 36.1 36.1 0 0 0
548 3 9.500000000000007 38 38 0 0 0
549 1 11.400000000000006 36.1 38 0 0 0
550 3 11.400000000000006 38 36.1 0 0 0
551 1 9.500000000000007 36.1 39.9 0 0 0
552 1 9.500000000000007 38 41.8 0 0 0
553 1 11.400000000000006 36.1 41.8 0 0 0
554 1 11.400000000000006 38 39.9 0 0 0
555 3 9.500000000000007 36.1 43.7 0 0 0
556 2 9.500000000000007 38 45.6 0 0 0
557 1 11.400000000000006 36.1 45.6 0 0 0
558 1 11.400000000000006 38 43.7 0 0 0
559 1 9.500000000000007 36.1 47.5 0 0 0
562 3 11.400000000000006 38 47.5 0 0 0
585 3 11.400000000000006 39.9 22.800000000000004 0 0 0
586 3 9.500000000000007 41.8 26.6 0 0 0
587 1 11.400000000000006 39.9 26.6 0 0 0
588 2 11.400000000000006 41.8 24.700000000000003 0 0 0
589 3 9.500000000000007 39.9 28.5 0 0 0
590 1 9.500000000000007 41.8 30.400000000000006 0 0 0
591 3 11.400000000000006 39.9 30.400000000000006 0 0 0
592 1 11.400000000000006 41.8 28.5 0 0 0
593 3 9.500000000000007 39.9 32.300000000000004 0 0 0
594 1 9.500000000000007 41.8 34.2 0 0 0
595 1 11.400000000000006 39.9 34.2 0 0 0
596 3 11.400000000000006 41.8 32.300000000000004 0 0 0
597 1 9.500000000000007 39.9 36.1 0 0 0
598 1 9.500000000000007 41.8 38 0 0 0
599 1 11.400000000000006 39.9 38 0 0 0
600 1 11.400000000000006 41.8 36.1 0 0 0
601 2 9.500000000000007 39.9 39.9 0 0 0
602 1 9.500000000000007 41.8 41.8 0 0 0
603 1 11.400000000000006 39.9 41.8 0 0 0
604 2 11.400000000000006 41.8 39.9 0 0 0
605 1 9.500000000000007 39.9 43.7 0 0 0
606 3 9.500000000000007 41.8 45.6 0 0 0
607 3 11.400000000000006 39.9 45.6 0 0 0
608 3 11.400000000000006 41.8 43.7 0 0 0
609 2 9.500000000000007 39.9 47.5 0 0 0
612 1 11.400000000000006 41.8 47.5 0 0 0
635 1 11.400000000000006 43.7 22.800000000000004 0 0 0
636 2 9.500000000000007 45.6 26.6 0 0 0
637 1 11.400000000000006 43.7 26.6 0 0 0
638 2 11.400000000000006 45.6 24.700000000000003 0 0 0
639 3 9.500000000000007 43.7 28.5 0 0 0
640 1 9.500000000000007 45.6 30.400000000000006 0 0 0
641 3 11.400000000000006 43.7 30.400000000000006 0 0 0
642 1 11.400000000000006 45.6 28.5 0 0 0
643 1 9.500000000000007 43.7 32.300000000000004 0 0 0
644 3 9.500000000000007 45.6 34.2 0 0 0
645 3 11.400000000000006 43.7 34.2 0 0 0
646 1 11.400000000000006 45.6 32.300000000000004 0 0 0
647 3 9.500000000000007 43.7 36.1 0 0 0
648 2 9.500000000000007 45.6 38 0 0 0
649 3 11.400000000000006 43.7 38 0 0 0
650 1 11.400000000000006 45.6 36.1 0 0 0
651 1 9.500000000000007 43.7 39.9 0 0 0
652 1 9.500000000000007 45.6 41.8 0 0 0
653 1 11.400000000000006 43.7 41.8 0 0 0
654 2 11.400000000000006 45.6 39.9 0 0 0
655 2 9.500000000000007 43.7 43.7 0 0 0
656 2 9.500000000000007 45.6 45.6 0 0 0
657 1 11.400000000000006 43.7 45.6 0 0 0
658 1 11.400000000000006 45.6 43.7 0 0 0
659 1 9.500000000000007 43.7 47.5 0 0 0
662 2 11.400000000000006 45.6 47.5 0 0 0
685 1 11.400000000000006 47.5 22.800000000000004 0 0 0
687 1 11.400000000000006 47.5 26.6 0 0 0
689 1 9.500000000000007 47.5 28.5 0 0 0
691 2 11.400000000000006 47.5 30.400000000000006 0 0 0
693 1 9.500000000000007 47.5 32.300000000000004 0 0 0
695 3 11.400000000000006 47.5 34.2 0 0 0
697 1 9.500000000000007 47.5 36.1 0 0 0
699 2 11.400000000000006 47.5 38 0 0 0
701 1 9.500000000000007 47.5 39.9 0 0 0
703 1 11.400000000000006 47.5 41.8 0 0 0
705 1 9.500000000000007 47.5 43.7 0 0 0
707 1 11.400000000000006 47.5 45.6 0 0 0
709 1 9.500000000000007 47.5 47.5 0 0 0
1012 1 15.200000000000003 15.200000000000003 17.100000000000005 0 0 0
1013 3 15.200000000000003 15.200000000000003 20.900000000000006 0 0 0
1014 1 15.200000000000003 15.200000000000003 24.700000000000003 0 0 0
1015 3 15.200000000000003 15.200000000000003 28.5 0 0 0
1016 1 15.200000000000003 15.200000000000003 32.300000000000004 0 0 0
1017 2 15.200000000000003 15.200000000000003 36.1 0 0 0
1018 1 15.200000000000003 15.200000000000003 39.9 0 0 0
1019 2 15.200000000000003 15.200000000000003 43.7 0 0 0
1020 1 15.200000000000003 15.200000000000003 47.5 0 0 0
1029 3 15.200000000000003 17.100000000000005 15.200000000000003 0 0 0
1030 1 13.300000000000004 19.000000000000004 19.000000000000004 0 0 0
1031 3 15.200000000000003 17.100000000000005 19.000000000000004 0 0 0
1032 1 15.200000000000003 19.000000000000004 17.100000000000005 0 0 0
1033 1 13.300000000000004 19.000000000000004 22.800000000000004 0 0 0
1034 1 15.200000000000003 17.100000000000005 22.800000000000004 0 0 0
1035 1 15.200000000000003 19.000000000000004 20.900000000000006 0 0 0
1036 3 13.300000000000004 19.000000000000004 26.6 0 0 0
1037 1 15.200000000000003 17.100000000000005 26.6 0 0 0
1038 1 15.200000000000003 19.000000000000004 24.700000000000003 0 0 0
1039 1 13.300000000000004 19.000000000000004 30.400000000000006 0 0 0
1040 1 15.200000000000003 17.100000000000005 30.400000000000006 0 0 0
1041 2 15.200000000000003 19.000000000000004 28.5 0 0 0
1042 1 13.300000000000004 19.000000000000004 34.2 0 0 0
1043 1 15.200000000000003 17.100000000000005 34.2 0 0 0
1044 1 15.200000000000003 19.000000000000004 32.300000000000004 0 0 0
1045 1 13.300000000000004 19.000000000000004 38 0 0 0
1046 3 15.200000000000003 17.100000000000005 38 0 0 0
1047 1 15.200000000000003 19.000000000000004 36.1 0 0 0
1048 3 13.300000000000004 19.000000000000004 41.8 0 0 0
1049 1 15.200000000000003 17.100000000000005 41.8 0 0 0
1050 1 15.200000000000003 19.000000000000004 39.9 0 0 0
1051 1 13.300000000000004 19.000000000000004 45.6 0 0 0
1052 1 15.200000000000003 17.100000000000005 45.6 0 0 0
1053 1 15.200000000000003 19.000000000000004 43.7 0 0 0
1056 3 15.200000000000003 19.000000000000004 47.5 0 0 0
1080 1 15.200000000000003 20.900000000000006 15.200000000000003 0 0 0
1081 2 13.300000000000004 22.800000000000004 19.000000000000004 0 0 0
1082 1 15.200000000000003 20.900000000000006 19.000000000000004 0 0 0
1083 1 15.200000000000003 22.800000000000004 17.100000000000005 0 0 0
1084 1 13.300000000000004 20.900000000000006 20.900000000000006 0 0 0
1085 2 13.300000000000004 22.800000000000004 22.800000000000004 0 0 0
1086 1 15.200000000000003 20.900000000000006 22.800000000000004 0 0 0
1087 1 15.200000000000003 22.800000000000004 20.900000000000006 0 0 0
1088 1 13.300000000000004 20.900000000000006 24.700000000000003 0 0 0
1089 1 13.300000000000004 22.800000000000004 26.6 0 0 0
1090 1 15.200000000000003 20.900000000000006 26.6 0 0 0
1091 3 15.200000000000003 22.800000000000004 24.700000000000003 0 0 0
1092 3 13.300000000000004 20.900000000000006 28.5 0 0 0
1093 1 13.300000000000004 22.800000000000004 30.400000000000006 0 0 0
1094 3 15.200000000000003 20.900000000000006 30.400000000000006 0 0 0
1095 3 15.200000000000003 22.800000000000004 28.5 0 0 0
1096 1 13.300000000000004 20.900000000000006 32.300000000000004 0 0 0
1097 1 13.300000000000004 22.800000000000004 34.2 0 0 0
1098 1 15.200000000000003 20.900000000000006 34.2 0 0 0
1099 1 15.200000000000003 22.800000000000004 32.300000000000004 0 0 0
1100 2 13.300000000000004 20.900000000000006 36.1 0 0 0
1101 1 13.300000000000004 22.800000000000004 38 0 0 0
1102 1 15.200000000000003 20.900000000000006 38 0 0 0
1103 3 15.200000000000003 22.800000000000004 36.1 0 0 0
1104 1 13.300000000000004 20.900000000000006 39.9 0 0 0
1105 3 13.300000000000004 22.800000000000004 41.8 0 0 0
1106 1 15.200000000000003 20.900000000000006 41.8 0 0 0
1107 1 15.200000000000003 22.800000000000004 39.9 0 0 0
1108 1 13.300000000000004 20.900000000000006 43.7 0 0 0
1109 3 13.300000000000004 22.800000000000004 45.6 0 0 0
1110 3 15.200000000000003 20.900000000000006 45.6 0 0 0
1111 1 15.200000000000003 22.800000000000004 43.7 0 0 0
1112 2 13.300000000000004 20.900000000000006 47.5 0 0 0
1115 2 15.200000000000003 22.800000000000004 47.5 0 0 0
1146 1 15.200000000000003 24.700000000000003 15.200000000000003 0 0 0
1147 1 13.300000000000004 26.6 19.000000000000004 0 0 0
1148 1 15.200000000000003 24.700000000000003 19.000000000000004 0 0 0
1149 1 15.200000000000003 26.6 17.100000000000005 0 0 0
1150 1 13.300000000000004 24.700000000000003 20.900000000000006 0 0 0
1151 3 13.300000000000004 26.6 22.800000000000004 0 0 0
1152 2 15.200000000000003 24.700000000000003 22.800000000000004 0 0 0
1153 1 15.200000000000003 26.6 20.900000000000006 0 0 0
1154 1 13.300000000000004 24.700000000000003 24.700000000000003 0 0 0
1155 1 13.300000000000004 26.6 26.6 0 0 0
1156 1 15.200000000000003 24.700000000000003 26.6 0 0 0
1157 1 15.200000000000003 26.6 24.700000000000003 0 0 0
1158 3 13.300000000000004 24.700000000000003 28.5 0 0 0
1159 1 13.300000000000004 26.6 30.400000000000006 0 0 0
1160 3 15.200000000000003 24.700000000000003 30.400000000000006 0 0 0
1161 1 15.200000000000003 26.6 28.5 0 0 0
1162 1 13.300000000000004 24.700000000000003 32.300000000000004 0 0 0
1163 1 13.300000000000004 26.6 34.2 0 0 0
1164 1 15.200000000000003 24.700000000000003 34.2 0 0 0
1165 1 15.200000000000003 26.6 32.300000000000004 0 0 0
1166 1 13.300000000000004 24.700000000000003 36.1 0 0 0
1167 2 13.300000000000004 26.6 38 0 0 0
1168 1 15.200000000000003 24.700000000000003 38 0 0 0
1169 1 15.200000000000003 26.6 36.1 0 0 0
1170 1 13.300000000000004 24.700000000000003 39.9 0 0 0
1171 1 13.300000000000004 26.6 41.8 0 0 0
1172 3 15.200000000000003 24.700000000000003 41.8 0 0 0
1173 3 15.200000000000003 26.6 39.9 0 0 0
1174 1 13.300000000000004 24.700000000000003 43.7 0 0 0
1175 1 13.300000000000004 26.6 45.6 0 0 0
1176 3 15.200000000000003 24.700000000000003 45.6 0 0 0
1177 3 15.200000000000003 26.6 43.7 0 0 0
1178 1 13.300000000000004 24.700000000000003 47.5 0 0 0
1181 1 15.200000000000003 26.6 47.5 0 0 0
1212 2 15.200000000000003 28.5 15.200000000000003 0 0 0
1213 1 13.300000000000004 30.400000000000006 19.000000000000004 0 0 0
1214 1 15.200000000000003 28.5 19.000000000000004 0 0 0
1215 3 15.200000000000003 30.400000000000006 17.100000000000005 0 0 0
1216 1 13.300000000000004 28.5 20.900000000000006 0 0 0
1217 2 13.300000000000004 30.400000000000006 22.800000000000004 0 0 0
1218 1 15.200000000000003 28.5 22.800000000000004 0 0 0
1219 2 15.200000000000003 30.400000000000006 20.900000000000006 0 0 0
1220 1 13.300000000000004 28.5 24.700000000000003 0 0 0
1221 1 13.300000000000004 30.400000000000006 26.6 0 0 0
1222 3 15.200000000000003 28.5 26.6 0 0 0
1223 1 15.200000000000003 30.400000000000006 24.700000000000003 0 0 0
1224 1 13.300000000000004 28.5 28.5 0 0 0
1225 2 13.300000000000004 30.400000000000006 30.400000000000006 0 0 0
1226 2 15.200000000000003 28.5 30.400000000000006 0 0 0
1227 1 15.200000000000003 30.400000000000006 28.5 0 0 0
1228 3 13.300000000000004 28.5 32.300000000000004 0 0 0
1229 1 13.300000000000004 30.400000000000006 34.2 0 0 0
1230 1 15.200000000000003 28.5 34.2 0 0 0
1231 1 15.200000000000003 30.400000000000006 32.300000000000004 0 0 0
1232 1 13.300000000000004 28.5 36.1 0 0 0
1233 1 13.300000000000004 30.400000000000006 38 0 0 0
1234 1 15.200000000000003 28.5 38 0 0 0
1235 3 15.200000000000003 30.400000000000006 36.1 0 0 0
1236 3 13.300000000000004 28.5 39.9 0 0 0
1237 1 13.300000000000004 30.400000000000006 41.8 0 0 0
1238 2 15.200000000000003 28.5 41.8 0 0 0
1239 1 15.200000000000003 30.400000000000006 39.9 0 0 0
1240 2 13.300000000000004 28.5 43.7 0 0 0
1241 1 13.300000000000004 30.400000000000006 45.6 0 0 0
1242 3 15.200000000000003 28.5 45.6 0 0 0
1243 1 15.200000000000003 30.400000000000006 43.7 0 0 0
1244 1 13.300000000000004 28.5 47.5 0 0 0
1247 2 15.200000000000003 30.400000000000006 47.5 0 0 0
1278 1 15.200000000000003 32.300000000000004 15.200000000000003 0 0 0
1279 2 13.300000000000004 34.2 19.000000000000004 0 0 0
1280 3 15.200000000000003 32.300000000000004 19.000000000000004 0 0 0
1281 1 15.200000000000003 34.2 17.100000000000005 0 0 0
1282 1 13.300000000000004 32.300000000000004 20.900000000000006 0 0 0
1283 1 13.300000000000004 34.2 22.800000000000004 0 0 0
1284 1 15.200000000000003 32.300000000000004 22.800000000000004 0 0 0
1285 1 15.200000000000003 34.2 20.900000000000006 0 0 0
1286 1 13.300000000000004 32.300000000000004 24.700000000000003 0 0 0
1287 2 13.300000000000004 34.2 26.6 0 0 0
1288 1 15.200000000000003 32.300000000000004 26.6 0 0 0
1289 3 15.200000000000003 34.2 24.700000000000003 0 0 0
1290 1 13.300000000000004 32.300000000000004 28.5 0 0 0
1291 1 13.300000000000004 34.2 30.400000000000006 0 0 0
1292 1 15.200000000000003 32.300000000000004 30.400000000000006 0 0 0
1293 2 15.200000000000003 34.2 28.5 0 0 0
1294 1 13.300000000000004 32.300000000000004 32.300000000000004 0 0 0
1295 2 13.300000000000004 34.2 34.2 0 0 0
1296 1 15.200000000000003 32.300000000000004 34.2 0 0 0
1297 2 15.200000000000003 34.2 32.300000000000004 0 0 0
1298 1 13.300000000000004 32.300000000000004 36.1 0 0 0
1299 2 13.300000000000004 34.2 38 0 0 0
1300 3 15.200000000000003 32.300000000000004 38 0 0 0
1301 1 15.200000000000003 34.2 36.1 0 0 0
1302 1 13.300000000000004 32.300000000000004 39.9 0 0 0
1303 2 13.300000000000004 34.2 41.8 0 0 0
1304 1 15.200000000000003 32.300000000000004 41.8 0 0 0
1305 1 15.200000000000003 34.2 39.9 0 0 0
1306 3 13.300000000000004 32.300000000000004 43.7 0 0 0
1307 1 13.300000000000004 34.2 45.6 0 0 0
1308 1 15.200000000000003 32.300000000000004 45.6 0 0 0
1309 2 15.200000000000003 34.2 43.7 0 0 0
1310 3 13.300000000000004 32.300000000000004 47.5 0 0 0
1313 1 15.200000000000003 34.2 47.5 0 0 0
1344 1 15.200000000000003 36.1 15.200000000000003 0 0 0
1345 3 13.300000000000004 38 19.000000000000004 0 0 0
1346 1 15.200000000000003 36.1 19.000000000000004 0 0 0
1347 1 15.200000000000003 38 17.100000000000005 0 0 0
1348 1 13.300000000000004 36.1 20.900000000000006 0 0 0
1349 1 13.300000000000004 38 22.800000000000004 0 0 0
1350 3 15.200000000000003 36.1 22.800000000000004 0 0 0
1351 3 15.200000000000003 38 20.900000000000006 0 0 0
1352 2 13.300000000000004 36.1 24.700000000000003 0 0 0
1353 1 13.300000000000004 38 26.6 0 0 0
1354 3 15.200000000000003 36.1 26.6 0 0 0
1355 2 15.200000000000003 38 24.700000000000003 0 0 0
1356 1 13.300000000000004 36.1 28.5 0 0 0
1357 1 13.300000000000004 38 30.400000000000006 0 0 0
1358 1 15.200000000000003 36.1 30.400000000000006 0 0 0
1359 2 15.200000000000003 38 28.5 0 0 0
1360 1 13.300000000000004 36.1 32.300000000000004 0 0 0
1361 1 13.300000000000004 38 34.2 0 0 0
1362 1 15.200000000000003 36.1 34.2 0 0 0
1363 1 15.200000000000003 38 32.300000000000004 0 0 0
1364 1 13.300000000000004 36.1 36.1 0 0 0
1365 2 13.300000000000004 38 38 0 0 0
1366 3 15.200000000000003 36.1 38 0 0 0
1367 3 15.200000000000003 38 36.1 0 0 0
1368 1 13.300000000000004 36.1 39.9 0 0 0
1369 2 13.300000000000004 38 41.8 0 0 0
1370 2 15.200000000000003 36.1 41.8 0 0 0
1371 1 15.200000000000003 38 39.9 0 0 0
1372 1 13.300000000000004 36.1 43.7 0 0 0
1373 3 13.300000000000004 38 45.6 0 0 0
1374 1 15.200000000000003 36.1 45.6 0 0 0
1375 1 15.200000000000003 38 43.7 0 0 0
1376 1 13.300000000000004 36.1 47.5 0 0 0
1379 2 15.200000000000003 38 47.5 0 0 0
1410 3 15.200000000000003 39.9 15.200000000000003 0 0 0
1411 2 13.300000000000004 41.8 19.000000000000004 0 0 0
1412 3 15.200000000000003 39.9 19.000000000000004 0 0 0
1413 3 15.200000000000003 41.8 17.100000000000005 0 0 0
1414 1 13.300000000000004 39.9 20.900000000000006 0 0 0
1415 1 13.300000000000004 41.8 22.800000000000004 0 0 0
1416 3 15.200000000000003 39.9 22.800000000000004 0 0 0
1417 2 15.200000000000003 41.8 20.900000000000006 0 0 0
1418 1 13.300000000000004 39.9 24.700000000000003 0 0 0
1419 3 13.300000000000004 41.8 26.6 0 0 0
1420 1 15.200000000000003 39.9 26.6 0 0 0
1421 2 15.200000000000003 41.8 24.700000000000003 0 0 0
1422 1 13.300000000000004 39.9 28.5 0 0 0
1423 1 13.300000000000004 41.8 30.400000000000006 0 0 0
1424 1 15.200000000000003 39.9 30.400000000000006 0 0 0
1425 1 15.200000000000003 41.8 28.5 0 0 0
1426 2 13.300000000000004 39.9 32.300000000000004 0 0 0
1427 1 13.300000000000004 41.8 34.2 0 0 0
1428 1 15.200000000000003 39.9 34.2 0 0 0
1429 1 15.200000000000003 41.8 32.300000000000004 0 0 0
1430 2 13.300000000000004 39.9 36.1 0 0 0
1431 2 13.300000000000004 41.8 38 0 0 0
1432 1 15.200000000000003 39.9 38 0 0 0
1433 1 15.200000000000003 41.8 36.1 0 0 0
1434 2 13.300000000000004 39.9 39.9 0 0 0
1435 3 13.300000000000004 41.8 41.8 0 0 0
1436 1 15.200000000000003 39.9 41.8 0 0 0
1437 1 15.200000000000003 41.8 39.9 0 0 0
1438 2 13.300000000000004 39.9 43.7 0 0 0
1439 1 13.300000000000004 41.8 45.6 0 0 0
1440 1 15.200000000000003 39.9 45.6 0 0 0
1441 2 15.200000000000003 41.8 43.7 0 0 0
1442 3 13.300000000000004 39.9 47.5 0 0 0
1445 1 15.200000000000003 41.8 47.5 0 0 0
1476 1 15.200000000000003 43.7 15.200000000000003 0 0 0
1477 1 13.300000000000004 45.6 19.000000000000004 0 0 0
1478 1 15.200000000000003 43.7 19.000000000000004 0 0 0
1479 1 15.200000000000003 45.6 17.100000000000005 0 0 0
1480 2 13.300000000000004 43.7 20.900000000000006 0 0 0
1481 1 13.300000000000004 45.6 22.800000000000004 0 0 0
1482 1 15.200000000000003 43.7 22.800000000000004 0 0 0
1483 1 15.200000000000003 45.6 20.900000000000006 0 0 0
1484 3 13.300000000000004 43.7 24.700000000000003 0 0 0
1485 2 13.300000000000004 45.6 26.6 0 0 0
1486 1 15.200000000000003 43.7 26.6 0 0 0
1487 1 15.200000000000003 45.6 24.700000000000003 0 0 0
1488 2 13.300000000000004 43.7 28.5 0 0 0
1489 3 13.300000000000004 45.6 30.400000000000006 0 0 0
1490 2 15.200000000000003 43.7 30.400000000000006 0 0 0
1491 1 15.200000000000003 45.6 28.5 0 0 0
1492 1 13.300000000000004 43.7 32.300000000000004 0 0 0
1493 1 13.300000000000004 45.6 34.2 0 0 0
1494 1 15.200000000000003 43.7 34.2 0 0 0
1495 1 15.200000000000003 45.6 32.300000000000004 0 0 0
1496 2 13.300000000000004 43.7 36.1 0 0 0
1497 1 13.300000000000004 45.6 38 0 0 0
1498 1 15.200000000000003 43.7 38 0 0 0
1499 2 15.200000000000003 45.6 36.1 0 0 0
1500 3 13.300000000000004 43.7 39.9 0 0 0
1501 2 13.300000000000004 45.6 41.8 0 0 0
1502 1 15.200000000000003 43.7 41.8 0 0 0
1503 3 15.200000000000003 45.6 39.9 0 0 0
1504 1 13.300000000000004 43.7 43.7 0 0 0
1505 1 13.300000000000004 45.6 45.6 0 0 0
1506 1 15.200000000000003 43.7 45.6 0 0 0
1507 2 15.200000000000003 45.6 43.7 0 0 0
1508 1 13.300000000000004 43.7 47.5 0 0 0
1511 1 15.200000000000003 45.6 47.5 0 0 0
1542 1 15.200000000000003 47.5 15.200000000000003 0 0 0
1544 2 15.200000000000003 47.5 19.000000000000004 0 0 0
1546 3 13.300000000000004 47.5 20.900000000000006 0 0 0
1548 2 15.200000000000003 47.5 22.800000000000004 0 0 0
1550 1 13.300000000000004 47.5 24.700000000000003 0 0 0
1552 2 15.200000000000003 47.5 26.6 0 0 0
1554 1 13.300000000000004 47.5 28.5 0 0 0
1556 1 15.200000000000003 47.5 30.400000000000006 0 0 0
1558 1 13.300000000000004 47.5 32.300000000000004 0 0 0
1560 1 15.200000000000003 47.5 34.2 0 0 0
1562 1 13.300000000000004 47.5 36.1 0 0 0
1564 2 15.200000000000003 47.5 38 0 0 0
1566 1 13.300000000000004 47.5 39.9 0 0 0
1568 3 15.200000000000003 47.5 41.8 0 0 0
1570 1 13.300000000000004 47.5 43.7 0 0 0
1572 2 15.200000000000003 47.5 45.6 0 0 0
1574 1 13.300000000000004 47.5 47.5 0 0 0
2105 2 17.100000000000005 15.200000000000003 15.200000000000003 0 0 0
2106 2 17.100000000000005 15.200000000000003 19.000000000000004 0 0 0
2107 3 19.000000000000004 13.300000000000004 19.000000000000004 0 0 0
2108 3 19.000000000000004 15.200000000000003 17.100000000000005 0 0 0
2109 1 17.100000000000005 15.200000000000003 22.800000000000004 0 0 0
2110 1 19.000000000000004 13.300000000000004 22.800000000000004 0 0 0
2111 1 19.000000000000004 15.200000000000003 20.900000000000006 0 0 0
2112 3 17.100000000000005 15.200000000000003 26.6 0 0 0
2113 1 19.000000000000004 13.300000000000004 26.6 0 0 0
2114 1 19.000000000000004 15.200000000000003 24.700000000000003 0 0 0
2115 1 17.100000000000005 15.200000000000003 30.400000000000006 0 0 0
2116 1 19.000000000000004 13.300000000000004 30.400000000000006 0 0 0
2117 1 19.000000000000004 15.200000000000003 28.5 0 0 0
2118 2 17.100000000000005 15.200000000000003 34.2 0 0 0
2119 1 19.000000000000004 13.300000000000004 34.2 0 0 0
2120 3 19.000000000000004 15.200000000000003 32.300000000000004 0 0 0
2121 2 17.100000000000005 15.200000000000003 38 0 0 0
2122 1 19.000000000000004 13.300000000000004 38 0 0 0
2123 2 19.000000000000004 15.200000000000003 36.1 0 0 0
2124 1 17.100000000000005 15.200000000000003 41.8 0 0 0
2125 1 19.000000000000004 13.300000000000004 41.8 0 0 0
2126 1 19.000000000000004 15.200000000000003 39.9 0 0 0
2127 1 17.100000000000005 15.200000000000003 45.6 0 0 0
2128 1 19.000000000000004 13.300000000000004 45.6 0 0 0
2129 1 19.000000000000004 15.200000000000003 43.7 0 0 0
2132 3 19.000000000000004 15.200000000000003 47.5 0 0 0
2156 1 17.100000000000005 19.000000000000004 15.200000000000003 0 0 0
2157 1 19.000000000000004 17.100000000000005 15.200000000000003 0 0 0