model_files/Fe/Fe_30000/Fe_221/data.Fe_221_fcc_30135 (written by ASE) 

30135 	 atoms 
1  atom types
0.0                     120  xlo xhi
0.0                     120  ylo yhi
0.0                     120  zlo zhi


Atoms 

     1   1      119.99999999999999      60.269999999999982      60.269999999999982
     2   1      4.3049999999999926      58.834999999999994      58.834999999999994
     3   1      2.8699999999999974      57.399999999999991      60.269999999999982
     4   1      4.3049999999999926      58.834999999999994      61.704999999999977
     5   1      2.8699999999999974      60.269999999999982      57.399999999999991
     6   1      4.3049999999999926      61.704999999999977      58.834999999999994
     7   1      2.8699999999999974      60.269999999999982      60.269999999999982
     8   1      4.3049999999999926      61.704999999999977      61.704999999999977
     9   1      2.8699999999999974      60.269999999999982      63.139999999999986
    10   1      2.8699999999999974      63.139999999999986      60.269999999999982
    11   1      7.1749999999999963      55.964999999999989      55.964999999999989
    12   1      7.1749999999999963      55.964999999999989      58.834999999999994
    13   1      5.7399999999999949       54.52999999999998      60.269999999999982
    14   1      7.1749999999999963      55.964999999999989      61.704999999999977
    15   1      7.1749999999999963      55.964999999999989      64.574999999999989
    16   1      7.1749999999999963      58.834999999999994      55.964999999999989
    17   1      5.7399999999999949      57.399999999999991      57.399999999999991
    18   1      7.1749999999999963      58.834999999999994      58.834999999999994
    19   1      5.7399999999999949      57.399999999999991      60.269999999999982
    20   1      7.1749999999999963      58.834999999999994      61.704999999999977
    21   1      5.7399999999999949      57.399999999999991      63.139999999999986
    22   1      7.1749999999999963      58.834999999999994      64.574999999999989
    23   1      5.7399999999999949      60.269999999999982       54.52999999999998
    24   1      7.1749999999999963      61.704999999999977      55.964999999999989
    25   1      5.7399999999999949      60.269999999999982      57.399999999999991
    26   1      7.1749999999999963      61.704999999999977      58.834999999999994
    27   1      5.7399999999999949      60.269999999999982      60.269999999999982
    28   1      7.1749999999999963      61.704999999999977      61.704999999999977
    29   1      5.7399999999999949      60.269999999999982      63.139999999999986
    30   1      7.1749999999999963      61.704999999999977      64.574999999999989
    31   1      5.7399999999999949      60.269999999999982      66.009999999999991
    32   1      7.1749999999999963      64.574999999999989      55.964999999999989
    33   1      5.7399999999999949      63.139999999999986      57.399999999999991
    34   1      7.1749999999999963      64.574999999999989      58.834999999999994
    35   1      5.7399999999999949      63.139999999999986      60.269999999999982
    36   1      7.1749999999999963      64.574999999999989      61.704999999999977
    37   1      5.7399999999999949      63.139999999999986      63.139999999999986
    38   1      7.1749999999999963      64.574999999999989      64.574999999999989
    39   1      5.7399999999999949      66.009999999999991      60.269999999999982
    40   1      10.044999999999995      53.094999999999985      55.964999999999989
    41   1      10.044999999999995      53.094999999999985      58.834999999999994
    42   1      8.6099999999999923      51.659999999999982      60.269999999999982
    43   1      10.044999999999995      53.094999999999985      61.704999999999977
    44   1      10.044999999999995      53.094999999999985      64.574999999999989
    45   1      10.044999999999995      55.964999999999989      53.094999999999985
    46   1      8.6099999999999923       54.52999999999998       54.52999999999998
    47   1      10.044999999999995      55.964999999999989      55.964999999999989
    48   1      8.6099999999999923       54.52999999999998      57.399999999999991
    49   1      10.044999999999995      55.964999999999989      58.834999999999994
    50   1      8.6099999999999923       54.52999999999998      60.269999999999982
    51   1      10.044999999999995      55.964999999999989      61.704999999999977
    52   1      8.6099999999999923       54.52999999999998      63.139999999999986
    53   1      10.044999999999995      55.964999999999989      64.574999999999989
    54   1      8.6099999999999923       54.52999999999998      66.009999999999991
    55   1      10.044999999999995      55.964999999999989      67.444999999999993
    56   1      10.044999999999995      58.834999999999994      53.094999999999985
    57   1      8.6099999999999923      57.399999999999991       54.52999999999998
    58   1      10.044999999999995      58.834999999999994      55.964999999999989
    59   1      8.6099999999999923      57.399999999999991      57.399999999999991
    60   1      10.044999999999995      58.834999999999994      58.834999999999994
    61   1      8.6099999999999923      57.399999999999991      60.269999999999982
    62   1      10.044999999999995      58.834999999999994      61.704999999999977
    63   1      8.6099999999999923      57.399999999999991      63.139999999999986
    64   1      10.044999999999995      58.834999999999994      64.574999999999989
    65   1      8.6099999999999923      57.399999999999991      66.009999999999991
    66   1      10.044999999999995      58.834999999999994      67.444999999999993
    67   1      8.6099999999999923      60.269999999999982      51.659999999999982
    68   1      10.044999999999995      61.704999999999977      53.094999999999985
    69   1      8.6099999999999923      60.269999999999982       54.52999999999998
    70   1      10.044999999999995      61.704999999999977      55.964999999999989
    71   1      8.6099999999999923      60.269999999999982      57.399999999999991
    72   1      10.044999999999995      61.704999999999977      58.834999999999994
    73   1      8.6099999999999923      60.269999999999982      60.269999999999982
    74   1      10.044999999999995      61.704999999999977      61.704999999999977
    75   1      8.6099999999999923      60.269999999999982      63.139999999999986
    76   1      10.044999999999995      61.704999999999977      64.574999999999989
    77   1      8.6099999999999923      60.269999999999982      66.009999999999991
    78   1      10.044999999999995      61.704999999999977      67.444999999999993
    79   1      8.6099999999999923      60.269999999999982      68.879999999999981
    80   1      10.044999999999995      64.574999999999989      53.094999999999985
    81   1      8.6099999999999923      63.139999999999986       54.52999999999998
    82   1      10.044999999999995      64.574999999999989      55.964999999999989
    83   1      8.6099999999999923      63.139999999999986      57.399999999999991
    84   1      10.044999999999995      64.574999999999989      58.834999999999994
    85   1      8.6099999999999923      63.139999999999986      60.269999999999982
    86   1      10.044999999999995      64.574999999999989      61.704999999999977
    87   1      8.6099999999999923      63.139999999999986      63.139999999999986
    88   1      10.044999999999995      64.574999999999989      64.574999999999989
    89   1      8.6099999999999923      63.139999999999986      66.009999999999991
    90   1      10.044999999999995      64.574999999999989      67.444999999999993
    91   1      8.6099999999999923      66.009999999999991       54.52999999999998
    92   1      10.044999999999995      67.444999999999993      55.964999999999989
    93   1      8.6099999999999923      66.009999999999991      57.399999999999991
    94   1      10.044999999999995      67.444999999999993      58.834999999999994
    95   1      8.6099999999999923      66.009999999999991      60.269999999999982
    96   1      10.044999999999995      67.444999999999993      61.704999999999977
    97   1      8.6099999999999923      66.009999999999991      63.139999999999986
    98   1      10.044999999999995      67.444999999999993      64.574999999999989
    99   1      8.6099999999999923      66.009999999999991      66.009999999999991
   100   1      8.6099999999999923      68.879999999999981      60.269999999999982
   101   1      12.914999999999992      50.224999999999994      55.964999999999989
   102   1      12.914999999999992      50.224999999999994      58.834999999999994
   103   1      11.479999999999997      48.789999999999992      60.269999999999982
   104   1      12.914999999999992      50.224999999999994      61.704999999999977
   105   1      12.914999999999992      50.224999999999994      64.574999999999989
   106   1      12.914999999999992      53.094999999999985      53.094999999999985
   107   1      11.479999999999997      51.659999999999982       54.52999999999998
   108   1      12.914999999999992      53.094999999999985      55.964999999999989
   109   1      11.479999999999997      51.659999999999982      57.399999999999991
   110   1      12.914999999999992      53.094999999999985      58.834999999999994
   111   1      11.479999999999997      51.659999999999982      60.269999999999982
   112   1      12.914999999999992      53.094999999999985      61.704999999999977
   113   1      11.479999999999997      51.659999999999982      63.139999999999986
   114   1      12.914999999999992      53.094999999999985      64.574999999999989
   115   1      11.479999999999997      51.659999999999982      66.009999999999991
   116   1      12.914999999999992      53.094999999999985      67.444999999999993
   117   1      12.914999999999992      55.964999999999989      50.224999999999994
   118   1      11.479999999999997       54.52999999999998      51.659999999999982
   119   1      12.914999999999992      55.964999999999989      53.094999999999985
   120   1      11.479999999999997       54.52999999999998       54.52999999999998
   121   1      12.914999999999992      55.964999999999989      55.964999999999989
   122   1      11.479999999999997       54.52999999999998      57.399999999999991
   123   1      12.914999999999992      55.964999999999989      58.834999999999994
   124   1      11.479999999999997       54.52999999999998      60.269999999999982
   125   1      12.914999999999992      55.964999999999989      61.704999999999977
   126   1      11.479999999999997       54.52999999999998      63.139999999999986
   127   1      12.914999999999992      55.964999999999989      64.574999999999989
   128   1      11.479999999999997       54.52999999999998      66.009999999999991
   129   1      12.914999999999992      55.964999999999989      67.444999999999993
   130   1      11.479999999999997       54.52999999999998      68.879999999999981
   131   1      12.914999999999992      55.964999999999989      70.314999999999969
   132   1      12.914999999999992      58.834999999999994      50.224999999999994
   133   1      11.479999999999997      57.399999999999991      51.659999999999982
   134   1      12.914999999999992      58.834999999999994      53.094999999999985
   135   1      11.479999999999997      57.399999999999991       54.52999999999998
   136   1      12.914999999999992      58.834999999999994      55.964999999999989
   137   1      11.479999999999997      57.399999999999991      57.399999999999991
   138   1      12.914999999999992      58.834999999999994      58.834999999999994
   139   1      11.479999999999997      57.399999999999991      60.269999999999982
   140   1      12.914999999999992      58.834999999999994      61.704999999999977
   141   1      11.479999999999997      57.399999999999991      63.139999999999986
   142   1      12.914999999999992      58.834999999999994      64.574999999999989
   143   1      11.479999999999997      57.399999999999991      66.009999999999991
   144   1      12.914999999999992      58.834999999999994      67.444999999999993
   145   1      11.479999999999997      57.399999999999991      68.879999999999981
   146   1      12.914999999999992      58.834999999999994      70.314999999999969
   147   1      11.479999999999997      60.269999999999982      48.789999999999992
   148   1      12.914999999999992      61.704999999999977      50.224999999999994
   149   1      11.479999999999997      60.269999999999982      51.659999999999982
   150   1      12.914999999999992      61.704999999999977      53.094999999999985
   151   1      11.479999999999997      60.269999999999982       54.52999999999998
   152   1      12.914999999999992      61.704999999999977      55.964999999999989
   153   1      11.479999999999997      60.269999999999982      57.399999999999991
   154   1      12.914999999999992      61.704999999999977      58.834999999999994
   155   1      11.479999999999997      60.269999999999982      60.269999999999982
   156   1      12.914999999999992      61.704999999999977      61.704999999999977
   157   1      11.479999999999997      60.269999999999982      63.139999999999986
   158   1      12.914999999999992      61.704999999999977      64.574999999999989
   159   1      11.479999999999997      60.269999999999982      66.009999999999991
   160   1      12.914999999999992      61.704999999999977      67.444999999999993
   161   1      11.479999999999997      60.269999999999982      68.879999999999981
   162   1      12.914999999999992      61.704999999999977      70.314999999999969
   163   1      11.479999999999997      60.269999999999982      71.749999999999986
   164   1      12.914999999999992      64.574999999999989      50.224999999999994
   165   1      11.479999999999997      63.139999999999986      51.659999999999982
   166   1      12.914999999999992      64.574999999999989      53.094999999999985
   167   1      11.479999999999997      63.139999999999986       54.52999999999998
   168   1      12.914999999999992      64.574999999999989      55.964999999999989
   169   1      11.479999999999997      63.139999999999986      57.399999999999991
   170   1      12.914999999999992      64.574999999999989      58.834999999999994
   171   1      11.479999999999997      63.139999999999986      60.269999999999982
   172   1      12.914999999999992      64.574999999999989      61.704999999999977
   173   1      11.479999999999997      63.139999999999986      63.139999999999986
   174   1      12.914999999999992      64.574999999999989      64.574999999999989
   175   1      11.479999999999997      63.139999999999986      66.009999999999991
   176   1      12.914999999999992      64.574999999999989      67.444999999999993
   177   1      11.479999999999997      63.139999999999986      68.879999999999981
   178   1      12.914999999999992      64.574999999999989      70.314999999999969
   179   1      11.479999999999997      66.009999999999991      51.659999999999982
   180   1      12.914999999999992      67.444999999999993      53.094999999999985
   181   1      11.479999999999997      66.009999999999991       54.52999999999998
   182   1      12.914999999999992      67.444999999999993      55.964999999999989
   183   1      11.479999999999997      66.009999999999991      57.399999999999991
   184   1      12.914999999999992      67.444999999999993      58.834999999999994
   185   1      11.479999999999997      66.009999999999991      60.269999999999982
   186   1      12.914999999999992      67.444999999999993      61.704999999999977
   187   1      11.479999999999997      66.009999999999991      63.139999999999986
   188   1      12.914999999999992      67.444999999999993      64.574999999999989
   189   1      11.479999999999997      66.009999999999991      66.009999999999991
   190   1      12.914999999999992      67.444999999999993      67.444999999999993
   191   1      11.479999999999997      66.009999999999991      68.879999999999981
   192   1      11.479999999999997      68.879999999999981       54.52999999999998
   193   1      12.914999999999992      70.314999999999969      55.964999999999989
   194   1      11.479999999999997      68.879999999999981      57.399999999999991
   195   1      12.914999999999992      70.314999999999969      58.834999999999994
   196   1      11.479999999999997      68.879999999999981      60.269999999999982
   197   1      12.914999999999992      70.314999999999969      61.704999999999977
   198   1      11.479999999999997      68.879999999999981      63.139999999999986
   199   1      12.914999999999992      70.314999999999969      64.574999999999989
   200   1      11.479999999999997      68.879999999999981      66.009999999999991
   201   1      11.479999999999997      71.749999999999986      60.269999999999982
   202   1      15.784999999999989       47.35499999999999      55.964999999999989
   203   1      15.784999999999989       47.35499999999999      58.834999999999994
   204   1      14.349999999999993      45.919999999999987      60.269999999999982
   205   1      15.784999999999989       47.35499999999999      61.704999999999977
   206   1      15.784999999999989       47.35499999999999      64.574999999999989
   207   1      15.784999999999989      50.224999999999994      50.224999999999994
   208   1      15.784999999999989      50.224999999999994      53.094999999999985
   209   1      14.349999999999993      48.789999999999992       54.52999999999998
   210   1      15.784999999999989      50.224999999999994      55.964999999999989
   211   1      14.349999999999993      48.789999999999992      57.399999999999991
   212   1      15.784999999999989      50.224999999999994      58.834999999999994
   213   1      14.349999999999993      48.789999999999992      60.269999999999982
   214   1      15.784999999999989      50.224999999999994      61.704999999999977
   215   1      14.349999999999993      48.789999999999992      63.139999999999986
   216   1      15.784999999999989      50.224999999999994      64.574999999999989
   217   1      14.349999999999993      48.789999999999992      66.009999999999991
   218   1      15.784999999999989      50.224999999999994      67.444999999999993
   219   1      15.784999999999989      50.224999999999994      70.314999999999969
   220   1      15.784999999999989      53.094999999999985      50.224999999999994
   221   1      14.349999999999993      51.659999999999982      51.659999999999982
   222   1      15.784999999999989      53.094999999999985      53.094999999999985
   223   1      14.349999999999993      51.659999999999982       54.52999999999998
   224   1      15.784999999999989      53.094999999999985      55.964999999999989
   225   1      14.349999999999993      51.659999999999982      57.399999999999991
   226   1      15.784999999999989      53.094999999999985      58.834999999999994
   227   1      14.349999999999993      51.659999999999982      60.269999999999982
   228   1      15.784999999999989      53.094999999999985      61.704999999999977
   229   1      14.349999999999993      51.659999999999982      63.139999999999986
   230   1      15.784999999999989      53.094999999999985      64.574999999999989
   231   1      14.349999999999993      51.659999999999982      66.009999999999991
   232   1      15.784999999999989      53.094999999999985      67.444999999999993
   233   1      14.349999999999993      51.659999999999982      68.879999999999981
   234   1      15.784999999999989      53.094999999999985      70.314999999999969
   235   1      15.784999999999989      55.964999999999989       47.35499999999999
   236   1      14.349999999999993       54.52999999999998      48.789999999999992
   237   1      15.784999999999989      55.964999999999989      50.224999999999994
   238   1      14.349999999999993       54.52999999999998      51.659999999999982
   239   1      15.784999999999989      55.964999999999989      53.094999999999985
   240   1      14.349999999999993       54.52999999999998       54.52999999999998
   241   1      15.784999999999989      55.964999999999989      55.964999999999989
   242   1      14.349999999999993       54.52999999999998      57.399999999999991
   243   1      15.784999999999989      55.964999999999989      58.834999999999994
   244   1      14.349999999999993       54.52999999999998      60.269999999999982
   245   1      15.784999999999989      55.964999999999989      61.704999999999977
   246   1      14.349999999999993       54.52999999999998      63.139999999999986
   247   1      15.784999999999989      55.964999999999989      64.574999999999989
   248   1      14.349999999999993       54.52999999999998      66.009999999999991
   249   1      15.784999999999989      55.964999999999989      67.444999999999993
   250   1      14.349999999999993       54.52999999999998      68.879999999999981
   251   1      15.784999999999989      55.964999999999989      70.314999999999969
   252   1      14.349999999999993       54.52999999999998      71.749999999999986
   253   1      15.784999999999989      55.964999999999989      73.184999999999988
   254   1      15.784999999999989      58.834999999999994       47.35499999999999
   255   1      14.349999999999993      57.399999999999991      48.789999999999992
   256   1      15.784999999999989      58.834999999999994      50.224999999999994
   257   1      14.349999999999993      57.399999999999991      51.659999999999982
   258   1      15.784999999999989      58.834999999999994      53.094999999999985
   259   1      14.349999999999993      57.399999999999991       54.52999999999998
   260   1      15.784999999999989      58.834999999999994      55.964999999999989
   261   1      14.349999999999993      57.399999999999991      57.399999999999991
   262   1      15.784999999999989      58.834999999999994      58.834999999999994
   263   1      14.349999999999993      57.399999999999991      60.269999999999982
   264   1      15.784999999999989      58.834999999999994      61.704999999999977
   265   1      14.349999999999993      57.399999999999991      63.139999999999986
   266   1      15.784999999999989      58.834999999999994      64.574999999999989
   267   1      14.349999999999993      57.399999999999991      66.009999999999991
   268   1      15.784999999999989      58.834999999999994      67.444999999999993
   269   1      14.349999999999993      57.399999999999991      68.879999999999981
   270   1      15.784999999999989      58.834999999999994      70.314999999999969
   271   1      14.349999999999993      57.399999999999991      71.749999999999986
   272   1      15.784999999999989      58.834999999999994      73.184999999999988
   273   1      14.349999999999993      60.269999999999982      45.919999999999987
   274   1      15.784999999999989      61.704999999999977       47.35499999999999
   275   1      14.349999999999993      60.269999999999982      48.789999999999992
   276   1      15.784999999999989      61.704999999999977      50.224999999999994
   277   1      14.349999999999993      60.269999999999982      51.659999999999982
   278   1      15.784999999999989      61.704999999999977      53.094999999999985
   279   1      14.349999999999993      60.269999999999982       54.52999999999998
   280   1      15.784999999999989      61.704999999999977      55.964999999999989
   281   1      14.349999999999993      60.269999999999982      57.399999999999991
   282   1      15.784999999999989      61.704999999999977      58.834999999999994
   283   1      14.349999999999993      60.269999999999982      60.269999999999982
   284   1      15.784999999999989      61.704999999999977      61.704999999999977
   285   1      14.349999999999993      60.269999999999982      63.139999999999986
   286   1      15.784999999999989      61.704999999999977      64.574999999999989
   287   1      14.349999999999993      60.269999999999982      66.009999999999991
   288   1      15.784999999999989      61.704999999999977      67.444999999999993
   289   1      14.349999999999993      60.269999999999982      68.879999999999981
   290   1      15.784999999999989      61.704999999999977      70.314999999999969
   291   1      14.349999999999993      60.269999999999982      71.749999999999986
   292   1      15.784999999999989      61.704999999999977      73.184999999999988
   293   1      14.349999999999993      60.269999999999982       74.61999999999999
   294   1      15.784999999999989      64.574999999999989       47.35499999999999
   295   1      14.349999999999993      63.139999999999986      48.789999999999992
   296   1      15.784999999999989      64.574999999999989      50.224999999999994
   297   1      14.349999999999993      63.139999999999986      51.659999999999982
   298   1      15.784999999999989      64.574999999999989      53.094999999999985
   299   1      14.349999999999993      63.139999999999986       54.52999999999998
   300   1      15.784999999999989      64.574999999999989      55.964999999999989
   301   1      14.349999999999993      63.139999999999986      57.399999999999991
   302   1      15.784999999999989      64.574999999999989      58.834999999999994
   303   1      14.349999999999993      63.139999999999986      60.269999999999982
   304   1      15.784999999999989      64.574999999999989      61.704999999999977
   305   1      14.349999999999993      63.139999999999986      63.139999999999986
   306   1      15.784999999999989      64.574999999999989      64.574999999999989
   307   1      14.349999999999993      63.139999999999986      66.009999999999991
   308   1      15.784999999999989      64.574999999999989      67.444999999999993
   309   1      14.349999999999993      63.139999999999986      68.879999999999981
   310   1      15.784999999999989      64.574999999999989      70.314999999999969
   311   1      14.349999999999993      63.139999999999986      71.749999999999986
   312   1      15.784999999999989      64.574999999999989      73.184999999999988
   313   1      14.349999999999993      66.009999999999991      48.789999999999992
   314   1      15.784999999999989      67.444999999999993      50.224999999999994
   315   1      14.349999999999993      66.009999999999991      51.659999999999982
   316   1      15.784999999999989      67.444999999999993      53.094999999999985
   317   1      14.349999999999993      66.009999999999991       54.52999999999998
   318   1      15.784999999999989      67.444999999999993      55.964999999999989
   319   1      14.349999999999993      66.009999999999991      57.399999999999991
   320   1      15.784999999999989      67.444999999999993      58.834999999999994
   321   1      14.349999999999993      66.009999999999991      60.269999999999982
   322   1      15.784999999999989      67.444999999999993      61.704999999999977
   323   1      14.349999999999993      66.009999999999991      63.139999999999986
   324   1      15.784999999999989      67.444999999999993      64.574999999999989
   325   1      14.349999999999993      66.009999999999991      66.009999999999991
   326   1      15.784999999999989      67.444999999999993      67.444999999999993
   327   1      14.349999999999993      66.009999999999991      68.879999999999981
   328   1      15.784999999999989      67.444999999999993      70.314999999999969
   329   1      14.349999999999993      66.009999999999991      71.749999999999986
   330   1      15.784999999999989      70.314999999999969      50.224999999999994
   331   1      14.349999999999993      68.879999999999981      51.659999999999982
   332   1      15.784999999999989      70.314999999999969      53.094999999999985
   333   1      14.349999999999993      68.879999999999981       54.52999999999998
   334   1      15.784999999999989      70.314999999999969      55.964999999999989
   335   1      14.349999999999993      68.879999999999981      57.399999999999991
   336   1      15.784999999999989      70.314999999999969      58.834999999999994
   337   1      14.349999999999993      68.879999999999981      60.269999999999982
   338   1      15.784999999999989      70.314999999999969      61.704999999999977
   339   1      14.349999999999993      68.879999999999981      63.139999999999986
   340   1      15.784999999999989      70.314999999999969      64.574999999999989
   341   1      14.349999999999993      68.879999999999981      66.009999999999991
   342   1      15.784999999999989      70.314999999999969      67.444999999999993
   343   1      14.349999999999993      68.879999999999981      68.879999999999981
   344   1      15.784999999999989      70.314999999999969      70.314999999999969
   345   1      14.349999999999993      71.749999999999986       54.52999999999998
   346   1      15.784999999999989      73.184999999999988      55.964999999999989
   347   1      14.349999999999993      71.749999999999986      57.399999999999991
   348   1      15.784999999999989      73.184999999999988      58.834999999999994
   349   1      14.349999999999993      71.749999999999986      60.269999999999982
   350   1      15.784999999999989      73.184999999999988      61.704999999999977
   351   1      14.349999999999993      71.749999999999986      63.139999999999986
   352   1      15.784999999999989      73.184999999999988      64.574999999999989
   353   1      14.349999999999993      71.749999999999986      66.009999999999991
   354   1      14.349999999999993       74.61999999999999      60.269999999999982
   355   1      18.654999999999994      44.484999999999992      55.964999999999989
   356   1      18.654999999999994      44.484999999999992      58.834999999999994
   357   1      17.219999999999992       43.04999999999999      60.269999999999982
   358   1      18.654999999999994      44.484999999999992      61.704999999999977