model_files/Ag/Ag_30000/Ag_542/data.Ag_542_fcc_29823 (written by ASE) 

29823 	 atoms 
1  atom types
0.0                     122  xlo xhi
0.0                     122  ylo yhi
0.0                     122  zlo zhi


Atoms 

     1   1      2.0449999999999946                  59.305      61.349999999999994
     2   1      2.0449999999999946      61.349999999999994                  59.305
     3   1                       0      61.349999999999994      61.349999999999994
     4   1      2.0449999999999946      61.349999999999994      63.395000000000003
     5   1      2.0449999999999946      63.395000000000003      61.349999999999994
     6   1      4.0899999999999972      55.214999999999996                  59.305
     7   1      6.1349999999999989      53.170000000000002                  59.305
     8   1      6.1349999999999989      55.214999999999996      57.259999999999991
     9   1      4.0899999999999972      55.214999999999996      63.395000000000003
    10   1      6.1349999999999989      53.170000000000002      63.395000000000003
    11   1      6.1349999999999989      55.214999999999996      61.349999999999994
    12   1      6.1349999999999989      55.214999999999996      65.439999999999998
    13   1      4.0899999999999972                  59.305      55.214999999999996
    14   1      6.1349999999999989      57.259999999999991      55.214999999999996
    15   1      6.1349999999999989                  59.305      53.170000000000002
    16   1      4.0899999999999972      57.259999999999991      57.259999999999991
    17   1      4.0899999999999972                  59.305                  59.305
    18   1      6.1349999999999989      57.259999999999991                  59.305
    19   1      6.1349999999999989                  59.305      57.259999999999991
    20   1      4.0899999999999972      57.259999999999991      61.349999999999994
    21   1      4.0899999999999972                  59.305      63.395000000000003
    22   1      6.1349999999999989      57.259999999999991      63.395000000000003
    23   1      6.1349999999999989                  59.305      61.349999999999994
    24   1      4.0899999999999972      57.259999999999991      65.439999999999998
    25   1      4.0899999999999972                  59.305      67.485000000000014
    26   1      6.1349999999999989      57.259999999999991      67.485000000000014
    27   1      6.1349999999999989                  59.305      65.439999999999998
    28   1      6.1349999999999989                  59.305      69.530000000000001
    29   1      4.0899999999999972      63.395000000000003      55.214999999999996
    30   1      6.1349999999999989      61.349999999999994      55.214999999999996
    31   1      6.1349999999999989      63.395000000000003      53.170000000000002
    32   1      4.0899999999999972      61.349999999999994      57.259999999999991
    33   1      4.0899999999999972      63.395000000000003                  59.305
    34   1      6.1349999999999989      61.349999999999994                  59.305
    35   1      6.1349999999999989      63.395000000000003      57.259999999999991
    36   1      4.0899999999999972      61.349999999999994      61.349999999999994
    37   1      4.0899999999999972      63.395000000000003      63.395000000000003
    38   1      6.1349999999999989      61.349999999999994      63.395000000000003
    39   1      6.1349999999999989      63.395000000000003      61.349999999999994
    40   1      4.0899999999999972      61.349999999999994      65.439999999999998
    41   1      4.0899999999999972      63.395000000000003      67.485000000000014
    42   1      6.1349999999999989      61.349999999999994      67.485000000000014
    43   1      6.1349999999999989      63.395000000000003      65.439999999999998
    44   1      6.1349999999999989      63.395000000000003      69.530000000000001
    45   1      6.1349999999999989      65.439999999999998      55.214999999999996
    46   1      4.0899999999999972      65.439999999999998      57.259999999999991
    47   1      4.0899999999999972      67.485000000000014                  59.305
    48   1      6.1349999999999989      65.439999999999998                  59.305
    49   1      6.1349999999999989      67.485000000000014      57.259999999999991
    50   1      4.0899999999999972      65.439999999999998      61.349999999999994
    51   1      4.0899999999999972      67.485000000000014      63.395000000000003
    52   1      6.1349999999999989      65.439999999999998      63.395000000000003
    53   1      6.1349999999999989      67.485000000000014      61.349999999999994
    54   1      4.0899999999999972      65.439999999999998      65.439999999999998
    55   1      6.1349999999999989      65.439999999999998      67.485000000000014
    56   1      6.1349999999999989      67.485000000000014      65.439999999999998
    57   1      6.1349999999999989      69.530000000000001                  59.305
    58   1      6.1349999999999989      69.530000000000001      63.395000000000003
    59   1      10.224999999999994      47.034999999999997      61.349999999999994
    60   1      10.224999999999994                  51.125      53.170000000000002
    61   1      8.1799999999999944                  51.125                  59.305
    62   1      10.224999999999994      49.080000000000005                  59.305
    63   1      10.224999999999994                  51.125      57.259999999999991
    64   1      8.1799999999999944      49.080000000000005      61.349999999999994
    65   1      8.1799999999999944                  51.125      63.395000000000003
    66   1      10.224999999999994      49.080000000000005      63.395000000000003
    67   1      10.224999999999994                  51.125      61.349999999999994
    68   1      10.224999999999994                  51.125      65.439999999999998
    69   1      10.224999999999994                  51.125      69.530000000000001
    70   1      10.224999999999994      53.170000000000002                  51.125
    71   1      8.1799999999999944      53.170000000000002      53.170000000000002
    72   1      8.1799999999999944      55.214999999999996      55.214999999999996
    73   1      10.224999999999994      53.170000000000002      55.214999999999996
    74   1      10.224999999999994      55.214999999999996      53.170000000000002
    75   1      8.1799999999999944      53.170000000000002      57.259999999999991
    76   1      8.1799999999999944      55.214999999999996                  59.305
    77   1      10.224999999999994      53.170000000000002                  59.305
    78   1      10.224999999999994      55.214999999999996      57.259999999999991
    79   1      8.1799999999999944      53.170000000000002      61.349999999999994
    80   1      8.1799999999999944      55.214999999999996      63.395000000000003
    81   1      10.224999999999994      53.170000000000002      63.395000000000003
    82   1      10.224999999999994      55.214999999999996      61.349999999999994
    83   1      8.1799999999999944      53.170000000000002      65.439999999999998
    84   1      8.1799999999999944      55.214999999999996      67.485000000000014
    85   1      10.224999999999994      53.170000000000002      67.485000000000014
    86   1      10.224999999999994      55.214999999999996      65.439999999999998
    87   1      8.1799999999999944      53.170000000000002      69.530000000000001
    88   1      10.224999999999994      53.170000000000002      71.575000000000003
    89   1      10.224999999999994      55.214999999999996      69.530000000000001
    90   1      8.1799999999999944                  59.305                  51.125
    91   1      10.224999999999994      57.259999999999991                  51.125
    92   1      10.224999999999994                  59.305      49.080000000000005
    93   1      8.1799999999999944      57.259999999999991      53.170000000000002
    94   1      8.1799999999999944                  59.305      55.214999999999996
    95   1      10.224999999999994      57.259999999999991      55.214999999999996
    96   1      10.224999999999994                  59.305      53.170000000000002
    97   1      8.1799999999999944      57.259999999999991      57.259999999999991
    98   1      8.1799999999999944                  59.305                  59.305
    99   1      10.224999999999994      57.259999999999991                  59.305
   100   1      10.224999999999994                  59.305      57.259999999999991
   101   1      8.1799999999999944      57.259999999999991      61.349999999999994
   102   1      8.1799999999999944                  59.305      63.395000000000003
   103   1      10.224999999999994      57.259999999999991      63.395000000000003
   104   1      10.224999999999994                  59.305      61.349999999999994
   105   1      8.1799999999999944      57.259999999999991      65.439999999999998
   106   1      8.1799999999999944                  59.305      67.485000000000014
   107   1      10.224999999999994      57.259999999999991      67.485000000000014
   108   1      10.224999999999994                  59.305      65.439999999999998
   109   1      8.1799999999999944      57.259999999999991      69.530000000000001
   110   1      8.1799999999999944                  59.305      71.575000000000003
   111   1      10.224999999999994      57.259999999999991      71.575000000000003
   112   1      10.224999999999994                  59.305      69.530000000000001
   113   1      10.224999999999994                  59.305       73.61999999999999
   114   1      10.224999999999994      61.349999999999994      47.034999999999997
   115   1      8.1799999999999944      61.349999999999994      49.080000000000005
   116   1      8.1799999999999944      63.395000000000003                  51.125
   117   1      10.224999999999994      61.349999999999994                  51.125
   118   1      10.224999999999994      63.395000000000003      49.080000000000005
   119   1      8.1799999999999944      61.349999999999994      53.170000000000002
   120   1      8.1799999999999944      63.395000000000003      55.214999999999996
   121   1      10.224999999999994      61.349999999999994      55.214999999999996
   122   1      10.224999999999994      63.395000000000003      53.170000000000002
   123   1      8.1799999999999944      61.349999999999994      57.259999999999991
   124   1      8.1799999999999944      63.395000000000003                  59.305
   125   1      10.224999999999994      61.349999999999994                  59.305
   126   1      10.224999999999994      63.395000000000003      57.259999999999991
   127   1      8.1799999999999944      61.349999999999994      61.349999999999994
   128   1      8.1799999999999944      63.395000000000003      63.395000000000003
   129   1      10.224999999999994      61.349999999999994      63.395000000000003
   130   1      10.224999999999994      63.395000000000003      61.349999999999994
   131   1      8.1799999999999944      61.349999999999994      65.439999999999998
   132   1      8.1799999999999944      63.395000000000003      67.485000000000014
   133   1      10.224999999999994      61.349999999999994      67.485000000000014
   134   1      10.224999999999994      63.395000000000003      65.439999999999998
   135   1      8.1799999999999944      61.349999999999994      69.530000000000001
   136   1      8.1799999999999944      63.395000000000003      71.575000000000003
   137   1      10.224999999999994      61.349999999999994      71.575000000000003
   138   1      10.224999999999994      63.395000000000003      69.530000000000001
   139   1      8.1799999999999944      61.349999999999994       73.61999999999999
   140   1      10.224999999999994      61.349999999999994      75.664999999999992
   141   1      10.224999999999994      63.395000000000003       73.61999999999999
   142   1      10.224999999999994      65.439999999999998                  51.125
   143   1      8.1799999999999944      65.439999999999998      53.170000000000002
   144   1      8.1799999999999944      67.485000000000014      55.214999999999996
   145   1      10.224999999999994      65.439999999999998      55.214999999999996
   146   1      10.224999999999994      67.485000000000014      53.170000000000002
   147   1      8.1799999999999944      65.439999999999998      57.259999999999991
   148   1      8.1799999999999944      67.485000000000014                  59.305
   149   1      10.224999999999994      65.439999999999998                  59.305
   150   1      10.224999999999994      67.485000000000014      57.259999999999991
   151   1      8.1799999999999944      65.439999999999998      61.349999999999994
   152   1      8.1799999999999944      67.485000000000014      63.395000000000003
   153   1      10.224999999999994      65.439999999999998      63.395000000000003
   154   1      10.224999999999994      67.485000000000014      61.349999999999994
   155   1      8.1799999999999944      65.439999999999998      65.439999999999998
   156   1      8.1799999999999944      67.485000000000014      67.485000000000014
   157   1      10.224999999999994      65.439999999999998      67.485000000000014
   158   1      10.224999999999994      67.485000000000014      65.439999999999998
   159   1      8.1799999999999944      65.439999999999998      69.530000000000001
   160   1      10.224999999999994      65.439999999999998      71.575000000000003
   161   1      10.224999999999994      67.485000000000014      69.530000000000001
   162   1      10.224999999999994      69.530000000000001                  51.125
   163   1      8.1799999999999944      69.530000000000001      53.170000000000002
   164   1      10.224999999999994      69.530000000000001      55.214999999999996
   165   1      10.224999999999994      71.575000000000003      53.170000000000002
   166   1      8.1799999999999944      69.530000000000001      57.259999999999991
   167   1      8.1799999999999944      71.575000000000003                  59.305
   168   1      10.224999999999994      69.530000000000001                  59.305
   169   1      10.224999999999994      71.575000000000003      57.259999999999991
   170   1      8.1799999999999944      69.530000000000001      61.349999999999994
   171   1      8.1799999999999944      71.575000000000003      63.395000000000003
   172   1      10.224999999999994      69.530000000000001      63.395000000000003
   173   1      10.224999999999994      71.575000000000003      61.349999999999994
   174   1      8.1799999999999944      69.530000000000001      65.439999999999998
   175   1      10.224999999999994      69.530000000000001      67.485000000000014
   176   1      10.224999999999994      71.575000000000003      65.439999999999998
   177   1      8.1799999999999944      69.530000000000001      69.530000000000001
   178   1      10.224999999999994      69.530000000000001      71.575000000000003
   179   1      10.224999999999994      71.575000000000003      69.530000000000001
   180   1      10.224999999999994       73.61999999999999                  59.305
   181   1      8.1799999999999944       73.61999999999999      61.349999999999994
   182   1      10.224999999999994       73.61999999999999      63.395000000000003
   183   1      10.224999999999994      75.664999999999992      61.349999999999994
   184   1      14.314999999999998                  42.945      61.349999999999994
   185   1      12.269999999999998      47.034999999999997      55.214999999999996
   186   1      14.314999999999998      44.989999999999995      55.214999999999996
   187   1      14.314999999999998      47.034999999999997      53.170000000000002
   188   1      12.269999999999998      47.034999999999997                  59.305
   189   1      14.314999999999998      44.989999999999995                  59.305
   190   1      14.314999999999998      47.034999999999997      57.259999999999991
   191   1      12.269999999999998      44.989999999999995      61.349999999999994
   192   1      12.269999999999998      47.034999999999997      63.395000000000003
   193   1      14.314999999999998      44.989999999999995      63.395000000000003
   194   1      14.314999999999998      47.034999999999997      61.349999999999994
   195   1      12.269999999999998      47.034999999999997      67.485000000000014
   196   1      14.314999999999998      44.989999999999995      67.485000000000014
   197   1      14.314999999999998      47.034999999999997      65.439999999999998
   198   1      14.314999999999998      47.034999999999997      69.530000000000001
   199   1      12.269999999999998                  51.125                  51.125
   200   1      14.314999999999998      49.080000000000005                  51.125
   201   1      14.314999999999998                  51.125      49.080000000000005
   202   1      12.269999999999998      49.080000000000005      53.170000000000002
   203   1      12.269999999999998                  51.125      55.214999999999996
   204   1      14.314999999999998      49.080000000000005      55.214999999999996
   205   1      14.314999999999998                  51.125      53.170000000000002
   206   1      12.269999999999998      49.080000000000005      57.259999999999991
   207   1      12.269999999999998                  51.125                  59.305
   208   1      14.314999999999998      49.080000000000005                  59.305
   209   1      14.314999999999998                  51.125      57.259999999999991
   210   1      12.269999999999998      49.080000000000005      61.349999999999994
   211   1      12.269999999999998                  51.125      63.395000000000003
   212   1      14.314999999999998      49.080000000000005      63.395000000000003
   213   1      14.314999999999998                  51.125      61.349999999999994
   214   1      12.269999999999998      49.080000000000005      65.439999999999998
   215   1      12.269999999999998                  51.125      67.485000000000014
   216   1      14.314999999999998      49.080000000000005      67.485000000000014
   217   1      14.314999999999998                  51.125      65.439999999999998
   218   1      12.269999999999998      49.080000000000005      69.530000000000001
   219   1      12.269999999999998                  51.125      71.575000000000003
   220   1      14.314999999999998      49.080000000000005      71.575000000000003
   221   1      14.314999999999998                  51.125      69.530000000000001
   222   1      14.314999999999998                  51.125       73.61999999999999
   223   1      12.269999999999998      55.214999999999996      47.034999999999997
   224   1      14.314999999999998      53.170000000000002      47.034999999999997
   225   1      14.314999999999998      55.214999999999996      44.989999999999995
   226   1      12.269999999999998      53.170000000000002      49.080000000000005
   227   1      12.269999999999998      55.214999999999996                  51.125
   228   1      14.314999999999998      53.170000000000002                  51.125
   229   1      14.314999999999998      55.214999999999996      49.080000000000005
   230   1      12.269999999999998      53.170000000000002      53.170000000000002
   231   1      12.269999999999998      55.214999999999996      55.214999999999996
   232   1      14.314999999999998      53.170000000000002      55.214999999999996
   233   1      14.314999999999998      55.214999999999996      53.170000000000002
   234   1      12.269999999999998      53.170000000000002      57.259999999999991
   235   1      12.269999999999998      55.214999999999996                  59.305
   236   1      14.314999999999998      53.170000000000002                  59.305
   237   1      14.314999999999998      55.214999999999996      57.259999999999991
   238   1      12.269999999999998      53.170000000000002      61.349999999999994
   239   1      12.269999999999998      55.214999999999996      63.395000000000003
   240   1      14.314999999999998      53.170000000000002      63.395000000000003
   241   1      14.314999999999998      55.214999999999996      61.349999999999994
   242   1      12.269999999999998      53.170000000000002      65.439999999999998
   243   1      12.269999999999998      55.214999999999996      67.485000000000014
   244   1      14.314999999999998      53.170000000000002      67.485000000000014
   245   1      14.314999999999998      55.214999999999996      65.439999999999998
   246   1      12.269999999999998      53.170000000000002      69.530000000000001
   247   1      12.269999999999998      55.214999999999996      71.575000000000003
   248   1      14.314999999999998      53.170000000000002      71.575000000000003
   249   1      14.314999999999998      55.214999999999996      69.530000000000001
   250   1      12.269999999999998      53.170000000000002       73.61999999999999
   251   1      12.269999999999998      55.214999999999996      75.664999999999992
   252   1      14.314999999999998      53.170000000000002      75.664999999999992
   253   1      14.314999999999998      55.214999999999996       73.61999999999999
   254   1      14.314999999999998      55.214999999999996      77.710000000000008
   255   1      12.269999999999998                  59.305      47.034999999999997
   256   1      14.314999999999998      57.259999999999991      47.034999999999997
   257   1      14.314999999999998                  59.305      44.989999999999995
   258   1      12.269999999999998      57.259999999999991      49.080000000000005
   259   1      12.269999999999998                  59.305                  51.125
   260   1      14.314999999999998      57.259999999999991                  51.125
   261   1      14.314999999999998                  59.305      49.080000000000005
   262   1      12.269999999999998      57.259999999999991      53.170000000000002
   263   1      12.269999999999998                  59.305      55.214999999999996
   264   1      14.314999999999998      57.259999999999991      55.214999999999996
   265   1      14.314999999999998                  59.305      53.170000000000002
   266   1      12.269999999999998      57.259999999999991      57.259999999999991
   267   1      12.269999999999998                  59.305                  59.305
   268   1      14.314999999999998      57.259999999999991                  59.305
   269   1      14.314999999999998                  59.305      57.259999999999991
   270   1      12.269999999999998      57.259999999999991      61.349999999999994
   271   1      12.269999999999998                  59.305      63.395000000000003
   272   1      14.314999999999998      57.259999999999991      63.395000000000003
   273   1      14.314999999999998                  59.305      61.349999999999994
   274   1      12.269999999999998      57.259999999999991      65.439999999999998
   275   1      12.269999999999998                  59.305      67.485000000000014
   276   1      14.314999999999998      57.259999999999991      67.485000000000014
   277   1      14.314999999999998                  59.305      65.439999999999998
   278   1      12.269999999999998      57.259999999999991      69.530000000000001
   279   1      12.269999999999998                  59.305      71.575000000000003
   280   1      14.314999999999998      57.259999999999991      71.575000000000003
   281   1      14.314999999999998                  59.305      69.530000000000001
   282   1      12.269999999999998      57.259999999999991       73.61999999999999
   283   1      12.269999999999998                  59.305      75.664999999999992
   284   1      14.314999999999998      57.259999999999991      75.664999999999992
   285   1      14.314999999999998                  59.305       73.61999999999999
   286   1      14.314999999999998                  59.305      77.710000000000008
   287   1      14.314999999999998      61.349999999999994                  42.945
   288   1      12.269999999999998      61.349999999999994      44.989999999999995
   289   1      12.269999999999998      63.395000000000003      47.034999999999997
   290   1      14.314999999999998      61.349999999999994      47.034999999999997
   291   1      14.314999999999998      63.395000000000003      44.989999999999995
   292   1      12.269999999999998      61.349999999999994      49.080000000000005
   293   1      12.269999999999998      63.395000000000003                  51.125
   294   1      14.314999999999998      61.349999999999994                  51.125
   295   1      14.314999999999998      63.395000000000003      49.080000000000005
   296   1      12.269999999999998      61.349999999999994      53.170000000000002
   297   1      12.269999999999998      63.395000000000003      55.214999999999996
   298   1      14.314999999999998      61.349999999999994      55.214999999999996
   299   1      14.314999999999998      63.395000000000003      53.170000000000002
   300   1      12.269999999999998      61.349999999999994      57.259999999999991
   301   1      12.269999999999998      63.395000000000003                  59.305
   302   1      14.314999999999998      61.349999999999994                  59.305
   303   1      14.314999999999998      63.395000000000003      57.259999999999991
   304   1      12.269999999999998      61.349999999999994      61.349999999999994
   305   1      12.269999999999998      63.395000000000003      63.395000000000003
   306   1      14.314999999999998      61.349999999999994      63.395000000000003
   307   1      14.314999999999998      63.395000000000003      61.349999999999994
   308   1      12.269999999999998      61.349999999999994      65.439999999999998
   309   1      12.269999999999998      63.395000000000003      67.485000000000014
   310   1      14.314999999999998      61.349999999999994      67.485000000000014
   311   1      14.314999999999998      63.395000000000003      65.439999999999998
   312   1      12.269999999999998      61.349999999999994      69.530000000000001
   313   1      12.269999999999998      63.395000000000003      71.575000000000003
   314   1      14.314999999999998      61.349999999999994      71.575000000000003
   315   1      14.314999999999998      63.395000000000003      69.530000000000001
   316   1      12.269999999999998      61.349999999999994       73.61999999999999
   317   1      12.269999999999998      63.395000000000003      75.664999999999992
   318   1      14.314999999999998      61.349999999999994      75.664999999999992
   319   1      14.314999999999998      63.395000000000003       73.61999999999999
   320   1      12.269999999999998      61.349999999999994      77.710000000000008
   321   1      14.314999999999998      61.349999999999994      79.754999999999995
   322   1      14.314999999999998      63.395000000000003      77.710000000000008
   323   1      12.269999999999998      67.485000000000014      47.034999999999997
   324   1      14.314999999999998      65.439999999999998      47.034999999999997
   325   1      14.314999999999998      67.485000000000014      44.989999999999995
   326   1      12.269999999999998      65.439999999999998      49.080000000000005
   327   1      12.269999999999998      67.485000000000014                  51.125
   328   1      14.314999999999998      65.439999999999998                  51.125
   329   1      14.314999999999998      67.485000000000014      49.080000000000005
   330   1      12.269999999999998      65.439999999999998      53.170000000000002
   331   1      12.269999999999998      67.485000000000014      55.214999999999996
   332   1      14.314999999999998      65.439999999999998      55.214999999999996
   333   1      14.314999999999998      67.485000000000014      53.170000000000002
   334   1      12.269999999999998      65.439999999999998      57.259999999999991
   335   1      12.269999999999998      67.485000000000014                  59.305
   336   1      14.314999999999998      65.439999999999998                  59.305
   337   1      14.314999999999998      67.485000000000014      57.259999999999991
   338   1      12.269999999999998      65.439999999999998      61.349999999999994
   339   1      12.269999999999998      67.485000000000014      63.395000000000003
   340   1      14.314999999999998      65.439999999999998      63.395000000000003
   341   1      14.314999999999998      67.485000000000014      61.349999999999994
   342   1      12.269999999999998      65.439999999999998      65.439999999999998
   343   1      12.269999999999998      67.485000000000014      67.485000000000014
   344   1      14.314999999999998      65.439999999999998      67.485000000000014
   345   1      14.314999999999998      67.485000000000014      65.439999999999998
   346   1      12.269999999999998      65.439999999999998      69.530000000000001
   347   1      12.269999999999998      67.485000000000014      71.575000000000003
   348   1      14.314999999999998      65.439999999999998      71.575000000000003
   349   1      14.314999999999998      67.485000000000014      69.530000000000001
   350   1      12.269999999999998      65.439999999999998       73.61999999999999
   351   1      12.269999999999998      67.485000000000014      75.664999999999992
   352   1      14.314999999999998      65.439999999999998      75.664999999999992
   353   1      14.314999999999998      67.485000000000014       73.61999999999999
   354   1      14.314999999999998      67.485000000000014      77.710000000000008
   355   1      14.314999999999998      69.530000000000001      47.034999999999997
   356   1      12.269999999999998      69.530000000000001      49.080000000000005
   357   1      12.269999999999998      71.575000000000003                  51.125
   358   1      14.314999999999998      69.530000000000001                  51.125