model_files/Ni/Ni_30000/Ni_510/data.Ni_510_fcc_29899 (written by ASE) 

29899 	 atoms 
1  atom types
0.0                      79  xlo xhi
0.0                      79  ylo yhi
0.0                      79  zlo zhi


Atoms 

     1   1      1.7599999999999909      29.919999999999987      31.679999999999989
     2   1      1.7599999999999909      29.919999999999987      35.199999999999989
     3   1      1.7599999999999909      29.919999999999987      38.719999999999992
     4   1      1.7599999999999909      29.919999999999987      42.239999999999988
     5   1      1.7599999999999909      29.919999999999987      45.759999999999991
     6   1      1.7599999999999909      31.679999999999989      29.919999999999987
     7   1      1.7599999999999909      31.679999999999989      33.439999999999991
     8   1      1.7599999999999909      33.439999999999991      31.679999999999989
     9   1      1.7599999999999909      31.679999999999989      36.959999999999987
    10   1      1.7599999999999909      33.439999999999991      35.199999999999989
    11   1      1.7599999999999909      31.679999999999989       40.47999999999999
    12   1      1.7599999999999909      33.439999999999991      38.719999999999992
    13   1      1.7599999999999909      31.679999999999989      43.999999999999986
    14   1      1.7599999999999909      33.439999999999991      42.239999999999988
    15   1      1.7599999999999909      31.679999999999989      47.519999999999989
    16   1      1.7599999999999909      33.439999999999991      45.759999999999991
    17   1      1.7599999999999909      35.199999999999989      29.919999999999987
    18   1      1.7599999999999909      35.199999999999989      33.439999999999991
    19   1      1.7599999999999909      36.959999999999987      31.679999999999989
    20   1      1.7599999999999909      35.199999999999989      36.959999999999987
    21   1      1.7599999999999909      36.959999999999987      35.199999999999989
    22   1      1.7599999999999909      35.199999999999989       40.47999999999999
    23   1      1.7599999999999909      36.959999999999987      38.719999999999992
    24   1      1.7599999999999909      35.199999999999989      43.999999999999986
    25   1      1.7599999999999909      36.959999999999987      42.239999999999988
    26   1      1.7599999999999909      35.199999999999989      47.519999999999989
    27   1      1.7599999999999909      36.959999999999987      45.759999999999991
    28   1      1.7599999999999909      38.719999999999992      29.919999999999987
    29   1      1.7599999999999909      38.719999999999992      33.439999999999991
    30   1      1.7599999999999909       40.47999999999999      31.679999999999989
    31   1      1.7599999999999909      38.719999999999992      36.959999999999987
    32   1      1.7599999999999909       40.47999999999999      35.199999999999989
    33   1      78.999999999999986      38.719999999999992      38.719999999999992
    34   1      1.7599999999999909      38.719999999999992       40.47999999999999
    35   1      1.7599999999999909       40.47999999999999      38.719999999999992
    36   1      1.7599999999999909      38.719999999999992      43.999999999999986
    37   1      1.7599999999999909       40.47999999999999      42.239999999999988
    38   1      1.7599999999999909      38.719999999999992      47.519999999999989
    39   1      1.7599999999999909       40.47999999999999      45.759999999999991
    40   1      1.7599999999999909      42.239999999999988      29.919999999999987
    41   1      1.7599999999999909      42.239999999999988      33.439999999999991
    42   1      1.7599999999999909      43.999999999999986      31.679999999999989
    43   1      1.7599999999999909      42.239999999999988      36.959999999999987
    44   1      1.7599999999999909      43.999999999999986      35.199999999999989
    45   1      1.7599999999999909      42.239999999999988       40.47999999999999
    46   1      1.7599999999999909      43.999999999999986      38.719999999999992
    47   1      1.7599999999999909      42.239999999999988      43.999999999999986
    48   1      1.7599999999999909      43.999999999999986      42.239999999999988
    49   1      1.7599999999999909      42.239999999999988      47.519999999999989
    50   1      1.7599999999999909      43.999999999999986      45.759999999999991
    51   1      1.7599999999999909      45.759999999999991      29.919999999999987
    52   1      1.7599999999999909      45.759999999999991      33.439999999999991
    53   1      1.7599999999999909      47.519999999999989      31.679999999999989
    54   1      1.7599999999999909      45.759999999999991      36.959999999999987
    55   1      1.7599999999999909      47.519999999999989      35.199999999999989
    56   1      1.7599999999999909      45.759999999999991       40.47999999999999
    57   1      1.7599999999999909      47.519999999999989      38.719999999999992
    58   1      1.7599999999999909      45.759999999999991      43.999999999999986
    59   1      1.7599999999999909      47.519999999999989      42.239999999999988
    60   1      1.7599999999999909      45.759999999999991      47.519999999999989
    61   1      1.7599999999999909      47.519999999999989      45.759999999999991
    62   1       5.279999999999994       12.31999999999999      14.079999999999991
    63   1       5.279999999999994       12.31999999999999      17.599999999999991
    64   1       5.279999999999994       12.31999999999999      21.119999999999987
    65   1       5.279999999999994       12.31999999999999      24.639999999999986
    66   1       5.279999999999994       12.31999999999999      28.159999999999986
    67   1       5.279999999999994       12.31999999999999      31.679999999999989
    68   1       5.279999999999994       12.31999999999999      35.199999999999989
    69   1       5.279999999999994       12.31999999999999      38.719999999999992
    70   1       5.279999999999994       12.31999999999999      42.239999999999988
    71   1       5.279999999999994       12.31999999999999      45.759999999999991
    72   1       5.279999999999994       12.31999999999999      49.279999999999987
    73   1       5.279999999999994       12.31999999999999       52.79999999999999
    74   1       5.279999999999994       12.31999999999999      56.319999999999993
    75   1       5.279999999999994       12.31999999999999      59.839999999999989
    76   1       5.279999999999994       12.31999999999999      63.359999999999978
    77   1       5.279999999999994      14.079999999999991       12.31999999999999
    78   1       5.279999999999994      14.079999999999991      15.839999999999993
    79   1       5.279999999999994      15.839999999999993      14.079999999999991
    80   1       5.279999999999994      14.079999999999991      19.359999999999992
    81   1       5.279999999999994      15.839999999999993      17.599999999999991
    82   1       5.279999999999994      14.079999999999991      22.879999999999992
    83   1       5.279999999999994      15.839999999999993      21.119999999999987
    84   1       5.279999999999994      14.079999999999991      26.399999999999991
    85   1       5.279999999999994      15.839999999999993      24.639999999999986
    86   1       5.279999999999994      14.079999999999991      29.919999999999987
    87   1       5.279999999999994      15.839999999999993      28.159999999999986
    88   1       5.279999999999994      14.079999999999991      33.439999999999991
    89   1       5.279999999999994      15.839999999999993      31.679999999999989
    90   1       5.279999999999994      14.079999999999991      36.959999999999987
    91   1       5.279999999999994      15.839999999999993      35.199999999999989
    92   1       5.279999999999994      14.079999999999991       40.47999999999999
    93   1       5.279999999999994      15.839999999999993      38.719999999999992
    94   1       5.279999999999994      14.079999999999991      43.999999999999986
    95   1       5.279999999999994      15.839999999999993      42.239999999999988
    96   1       5.279999999999994      14.079999999999991      47.519999999999989
    97   1       5.279999999999994      15.839999999999993      45.759999999999991
    98   1       5.279999999999994      14.079999999999991      51.039999999999985
    99   1       5.279999999999994      15.839999999999993      49.279999999999987
   100   1       5.279999999999994      14.079999999999991      54.559999999999988
   101   1       5.279999999999994      15.839999999999993       52.79999999999999
   102   1       5.279999999999994      14.079999999999991      58.079999999999984
   103   1       5.279999999999994      15.839999999999993      56.319999999999993
   104   1       5.279999999999994      14.079999999999991      61.599999999999994
   105   1       5.279999999999994      15.839999999999993      59.839999999999989
   106   1       5.279999999999994      14.079999999999991       65.11999999999999
   107   1       5.279999999999994      15.839999999999993      63.359999999999978
   108   1       5.279999999999994      17.599999999999991       12.31999999999999
   109   1       5.279999999999994      17.599999999999991      15.839999999999993
   110   1       5.279999999999994      19.359999999999992      14.079999999999991
   111   1       5.279999999999994      17.599999999999991      19.359999999999992
   112   1       5.279999999999994      19.359999999999992      17.599999999999991
   113   1       5.279999999999994      17.599999999999991      22.879999999999992
   114   1       5.279999999999994      19.359999999999992      21.119999999999987
   115   1       5.279999999999994      17.599999999999991      26.399999999999991
   116   1       5.279999999999994      19.359999999999992      24.639999999999986
   117   1       5.279999999999994      17.599999999999991      29.919999999999987
   118   1       5.279999999999994      19.359999999999992      28.159999999999986
   119   1       5.279999999999994      17.599999999999991      33.439999999999991
   120   1       5.279999999999994      19.359999999999992      31.679999999999989
   121   1       5.279999999999994      17.599999999999991      36.959999999999987
   122   1       5.279999999999994      19.359999999999992      35.199999999999989
   123   1       5.279999999999994      17.599999999999991       40.47999999999999
   124   1       5.279999999999994      19.359999999999992      38.719999999999992
   125   1       5.279999999999994      17.599999999999991      43.999999999999986
   126   1       5.279999999999994      19.359999999999992      42.239999999999988
   127   1       5.279999999999994      17.599999999999991      47.519999999999989
   128   1       5.279999999999994      19.359999999999992      45.759999999999991
   129   1       5.279999999999994      17.599999999999991      51.039999999999985
   130   1       5.279999999999994      19.359999999999992      49.279999999999987
   131   1       5.279999999999994      17.599999999999991      54.559999999999988
   132   1       5.279999999999994      19.359999999999992       52.79999999999999
   133   1       5.279999999999994      17.599999999999991      58.079999999999984
   134   1       5.279999999999994      19.359999999999992      56.319999999999993
   135   1       5.279999999999994      17.599999999999991      61.599999999999994
   136   1       5.279999999999994      19.359999999999992      59.839999999999989
   137   1       5.279999999999994      17.599999999999991       65.11999999999999
   138   1       5.279999999999994      19.359999999999992      63.359999999999978
   139   1       5.279999999999994      21.119999999999987       12.31999999999999
   140   1       5.279999999999994      21.119999999999987      15.839999999999993
   141   1       5.279999999999994      22.879999999999992      14.079999999999991
   142   1       5.279999999999994      21.119999999999987      19.359999999999992
   143   1       5.279999999999994      22.879999999999992      17.599999999999991
   144   1      3.5199999999999889      21.119999999999987      21.119999999999987
   145   1      3.5199999999999889      22.879999999999992      22.879999999999992
   146   1       5.279999999999994      21.119999999999987      22.879999999999992
   147   1       5.279999999999994      22.879999999999992      21.119999999999987
   148   1      3.5199999999999889      21.119999999999987      24.639999999999986
   149   1      3.5199999999999889      22.879999999999992      26.399999999999991
   150   1       5.279999999999994      21.119999999999987      26.399999999999991
   151   1       5.279999999999994      22.879999999999992      24.639999999999986
   152   1      3.5199999999999889      21.119999999999987      28.159999999999986
   153   1      3.5199999999999889      22.879999999999992      29.919999999999987
   154   1       5.279999999999994      21.119999999999987      29.919999999999987
   155   1       5.279999999999994      22.879999999999992      28.159999999999986
   156   1      3.5199999999999889      21.119999999999987      31.679999999999989
   157   1      3.5199999999999889      22.879999999999992      33.439999999999991
   158   1       5.279999999999994      21.119999999999987      33.439999999999991
   159   1       5.279999999999994      22.879999999999992      31.679999999999989
   160   1      3.5199999999999889      21.119999999999987      35.199999999999989
   161   1      3.5199999999999889      22.879999999999992      36.959999999999987
   162   1       5.279999999999994      21.119999999999987      36.959999999999987
   163   1       5.279999999999994      22.879999999999992      35.199999999999989
   164   1      3.5199999999999889      21.119999999999987      38.719999999999992
   165   1      3.5199999999999889      22.879999999999992       40.47999999999999
   166   1       5.279999999999994      21.119999999999987       40.47999999999999
   167   1       5.279999999999994      22.879999999999992      38.719999999999992
   168   1      3.5199999999999889      21.119999999999987      42.239999999999988
   169   1      3.5199999999999889      22.879999999999992      43.999999999999986
   170   1       5.279999999999994      21.119999999999987      43.999999999999986
   171   1       5.279999999999994      22.879999999999992      42.239999999999988
   172   1      3.5199999999999889      21.119999999999987      45.759999999999991
   173   1      3.5199999999999889      22.879999999999992      47.519999999999989
   174   1       5.279999999999994      21.119999999999987      47.519999999999989
   175   1       5.279999999999994      22.879999999999992      45.759999999999991
   176   1      3.5199999999999889      21.119999999999987      49.279999999999987
   177   1      3.5199999999999889      22.879999999999992      51.039999999999985
   178   1       5.279999999999994      21.119999999999987      51.039999999999985
   179   1       5.279999999999994      22.879999999999992      49.279999999999987
   180   1      3.5199999999999889      21.119999999999987       52.79999999999999
   181   1      3.5199999999999889      22.879999999999992      54.559999999999988
   182   1       5.279999999999994      21.119999999999987      54.559999999999988
   183   1       5.279999999999994      22.879999999999992       52.79999999999999
   184   1      3.5199999999999889      21.119999999999987      56.319999999999993
   185   1       5.279999999999994      21.119999999999987      58.079999999999984
   186   1       5.279999999999994      22.879999999999992      56.319999999999993
   187   1       5.279999999999994      21.119999999999987      61.599999999999994
   188   1       5.279999999999994      22.879999999999992      59.839999999999989
   189   1       5.279999999999994      21.119999999999987       65.11999999999999
   190   1       5.279999999999994      22.879999999999992      63.359999999999978
   191   1       5.279999999999994      24.639999999999986       12.31999999999999
   192   1       5.279999999999994      24.639999999999986      15.839999999999993
   193   1       5.279999999999994      26.399999999999991      14.079999999999991
   194   1       5.279999999999994      24.639999999999986      19.359999999999992
   195   1       5.279999999999994      26.399999999999991      17.599999999999991
   196   1      3.5199999999999889      24.639999999999986      21.119999999999987
   197   1      3.5199999999999889      26.399999999999991      22.879999999999992
   198   1       5.279999999999994      24.639999999999986      22.879999999999992
   199   1       5.279999999999994      26.399999999999991      21.119999999999987
   200   1      3.5199999999999889      24.639999999999986      24.639999999999986
   201   1      3.5199999999999889      26.399999999999991      26.399999999999991
   202   1       5.279999999999994      24.639999999999986      26.399999999999991
   203   1       5.279999999999994      26.399999999999991      24.639999999999986
   204   1      3.5199999999999889      24.639999999999986      28.159999999999986
   205   1      3.5199999999999889      26.399999999999991      29.919999999999987
   206   1       5.279999999999994      24.639999999999986      29.919999999999987
   207   1       5.279999999999994      26.399999999999991      28.159999999999986
   208   1      3.5199999999999889      24.639999999999986      31.679999999999989
   209   1      3.5199999999999889      26.399999999999991      33.439999999999991
   210   1       5.279999999999994      24.639999999999986      33.439999999999991
   211   1       5.279999999999994      26.399999999999991      31.679999999999989
   212   1      3.5199999999999889      24.639999999999986      35.199999999999989
   213   1      3.5199999999999889      26.399999999999991      36.959999999999987
   214   1       5.279999999999994      24.639999999999986      36.959999999999987
   215   1       5.279999999999994      26.399999999999991      35.199999999999989
   216   1      3.5199999999999889      24.639999999999986      38.719999999999992
   217   1      3.5199999999999889      26.399999999999991       40.47999999999999
   218   1       5.279999999999994      24.639999999999986       40.47999999999999
   219   1       5.279999999999994      26.399999999999991      38.719999999999992
   220   1      3.5199999999999889      24.639999999999986      42.239999999999988
   221   1      3.5199999999999889      26.399999999999991      43.999999999999986
   222   1       5.279999999999994      24.639999999999986      43.999999999999986
   223   1       5.279999999999994      26.399999999999991      42.239999999999988
   224   1      3.5199999999999889      24.639999999999986      45.759999999999991
   225   1      3.5199999999999889      26.399999999999991      47.519999999999989
   226   1       5.279999999999994      24.639999999999986      47.519999999999989
   227   1       5.279999999999994      26.399999999999991      45.759999999999991
   228   1      3.5199999999999889      24.639999999999986      49.279999999999987
   229   1      3.5199999999999889      26.399999999999991      51.039999999999985
   230   1       5.279999999999994      24.639999999999986      51.039999999999985
   231   1       5.279999999999994      26.399999999999991      49.279999999999987
   232   1      3.5199999999999889      24.639999999999986       52.79999999999999
   233   1      3.5199999999999889      26.399999999999991      54.559999999999988
   234   1       5.279999999999994      24.639999999999986      54.559999999999988
   235   1       5.279999999999994      26.399999999999991       52.79999999999999
   236   1      3.5199999999999889      24.639999999999986      56.319999999999993
   237   1       5.279999999999994      24.639999999999986      58.079999999999984
   238   1       5.279999999999994      26.399999999999991      56.319999999999993
   239   1       5.279999999999994      24.639999999999986      61.599999999999994
   240   1       5.279999999999994      26.399999999999991      59.839999999999989
   241   1       5.279999999999994      24.639999999999986       65.11999999999999
   242   1       5.279999999999994      26.399999999999991      63.359999999999978
   243   1       5.279999999999994      28.159999999999986       12.31999999999999
   244   1       5.279999999999994      28.159999999999986      15.839999999999993
   245   1       5.279999999999994      29.919999999999987      14.079999999999991
   246   1       5.279999999999994      28.159999999999986      19.359999999999992
   247   1       5.279999999999994      29.919999999999987      17.599999999999991
   248   1      3.5199999999999889      28.159999999999986      21.119999999999987
   249   1      3.5199999999999889      29.919999999999987      22.879999999999992
   250   1       5.279999999999994      28.159999999999986      22.879999999999992
   251   1       5.279999999999994      29.919999999999987      21.119999999999987
   252   1      3.5199999999999889      28.159999999999986      24.639999999999986
   253   1      3.5199999999999889      29.919999999999987      26.399999999999991
   254   1       5.279999999999994      28.159999999999986      26.399999999999991
   255   1       5.279999999999994      29.919999999999987      24.639999999999986
   256   1      3.5199999999999889      28.159999999999986      28.159999999999986
   257   1      3.5199999999999889      29.919999999999987      29.919999999999987
   258   1       5.279999999999994      28.159999999999986      29.919999999999987
   259   1       5.279999999999994      29.919999999999987      28.159999999999986
   260   1      3.5199999999999889      28.159999999999986      31.679999999999989
   261   1      3.5199999999999889      29.919999999999987      33.439999999999991
   262   1       5.279999999999994      28.159999999999986      33.439999999999991
   263   1       5.279999999999994      29.919999999999987      31.679999999999989
   264   1      3.5199999999999889      28.159999999999986      35.199999999999989
   265   1      3.5199999999999889      29.919999999999987      36.959999999999987
   266   1       5.279999999999994      28.159999999999986      36.959999999999987
   267   1       5.279999999999994      29.919999999999987      35.199999999999989
   268   1      3.5199999999999889      28.159999999999986      38.719999999999992
   269   1      3.5199999999999889      29.919999999999987       40.47999999999999
   270   1       5.279999999999994      28.159999999999986       40.47999999999999
   271   1       5.279999999999994      29.919999999999987      38.719999999999992
   272   1      3.5199999999999889      28.159999999999986      42.239999999999988
   273   1      3.5199999999999889      29.919999999999987      43.999999999999986
   274   1       5.279999999999994      28.159999999999986      43.999999999999986
   275   1       5.279999999999994      29.919999999999987      42.239999999999988
   276   1      3.5199999999999889      28.159999999999986      45.759999999999991
   277   1      3.5199999999999889      29.919999999999987      47.519999999999989
   278   1       5.279999999999994      28.159999999999986      47.519999999999989
   279   1       5.279999999999994      29.919999999999987      45.759999999999991
   280   1      3.5199999999999889      28.159999999999986      49.279999999999987
   281   1      3.5199999999999889      29.919999999999987      51.039999999999985
   282   1       5.279999999999994      28.159999999999986      51.039999999999985
   283   1       5.279999999999994      29.919999999999987      49.279999999999987
   284   1      3.5199999999999889      28.159999999999986       52.79999999999999
   285   1      3.5199999999999889      29.919999999999987      54.559999999999988
   286   1       5.279999999999994      28.159999999999986      54.559999999999988
   287   1       5.279999999999994      29.919999999999987       52.79999999999999
   288   1      3.5199999999999889      28.159999999999986      56.319999999999993
   289   1       5.279999999999994      28.159999999999986      58.079999999999984
   290   1       5.279999999999994      29.919999999999987      56.319999999999993
   291   1       5.279999999999994      28.159999999999986      61.599999999999994
   292   1       5.279999999999994      29.919999999999987      59.839999999999989
   293   1       5.279999999999994      28.159999999999986       65.11999999999999
   294   1       5.279999999999994      29.919999999999987      63.359999999999978
   295   1       5.279999999999994      31.679999999999989       12.31999999999999
   296   1       5.279999999999994      31.679999999999989      15.839999999999993
   297   1       5.279999999999994      33.439999999999991      14.079999999999991
   298   1       5.279999999999994      31.679999999999989      19.359999999999992
   299   1       5.279999999999994      33.439999999999991      17.599999999999991
   300   1      3.5199999999999889      31.679999999999989      21.119999999999987
   301   1      3.5199999999999889      33.439999999999991      22.879999999999992
   302   1       5.279999999999994      31.679999999999989      22.879999999999992
   303   1       5.279999999999994      33.439999999999991      21.119999999999987
   304   1      3.5199999999999889      31.679999999999989      24.639999999999986
   305   1      3.5199999999999889      33.439999999999991      26.399999999999991
   306   1       5.279999999999994      31.679999999999989      26.399999999999991
   307   1       5.279999999999994      33.439999999999991      24.639999999999986
   308   1      3.5199999999999889      31.679999999999989      28.159999999999986
   309   1      3.5199999999999889      33.439999999999991      29.919999999999987
   310   1       5.279999999999994      31.679999999999989      29.919999999999987
   311   1       5.279999999999994      33.439999999999991      28.159999999999986
   312   1      3.5199999999999889      31.679999999999989      31.679999999999989
   313   1      3.5199999999999889      33.439999999999991      33.439999999999991
   314   1       5.279999999999994      31.679999999999989      33.439999999999991
   315   1       5.279999999999994      33.439999999999991      31.679999999999989
   316   1      3.5199999999999889      31.679999999999989      35.199999999999989
   317   1      3.5199999999999889      33.439999999999991      36.959999999999987
   318   1       5.279999999999994      31.679999999999989      36.959999999999987
   319   1       5.279999999999994      33.439999999999991      35.199999999999989
   320   1      3.5199999999999889      31.679999999999989      38.719999999999992
   321   1      3.5199999999999889      33.439999999999991       40.47999999999999
   322   1       5.279999999999994      31.679999999999989       40.47999999999999
   323   1       5.279999999999994      33.439999999999991      38.719999999999992
   324   1      3.5199999999999889      31.679999999999989      42.239999999999988
   325   1      3.5199999999999889      33.439999999999991      43.999999999999986
   326   1       5.279999999999994      31.679999999999989      43.999999999999986
   327   1       5.279999999999994      33.439999999999991      42.239999999999988
   328   1      3.5199999999999889      31.679999999999989      45.759999999999991
   329   1      3.5199999999999889      33.439999999999991      47.519999999999989
   330   1       5.279999999999994      31.679999999999989      47.519999999999989
   331   1       5.279999999999994      33.439999999999991      45.759999999999991
   332   1      3.5199999999999889      31.679999999999989      49.279999999999987
   333   1      3.5199999999999889      33.439999999999991      51.039999999999985
   334   1       5.279999999999994      31.679999999999989      51.039999999999985
   335   1       5.279999999999994      33.439999999999991      49.279999999999987
   336   1      3.5199999999999889      31.679999999999989       52.79999999999999
   337   1      3.5199999999999889      33.439999999999991      54.559999999999988
   338   1       5.279999999999994      31.679999999999989      54.559999999999988
   339   1       5.279999999999994      33.439999999999991       52.79999999999999
   340   1      3.5199999999999889      31.679999999999989      56.319999999999993
   341   1       5.279999999999994      31.679999999999989      58.079999999999984
   342   1       5.279999999999994      33.439999999999991      56.319999999999993
   343   1       5.279999999999994      31.679999999999989      61.599999999999994
   344   1       5.279999999999994      33.439999999999991      59.839999999999989
   345   1       5.279999999999994      31.679999999999989       65.11999999999999
   346   1       5.279999999999994      33.439999999999991      63.359999999999978
   347   1       5.279999999999994      35.199999999999989       12.31999999999999
   348   1       5.279999999999994      35.199999999999989      15.839999999999993
   349   1       5.279999999999994      36.959999999999987      14.079999999999991
   350   1       5.279999999999994      35.199999999999989      19.359999999999992
   351   1       5.279999999999994      36.959999999999987      17.599999999999991
   352   1      3.5199999999999889      35.199999999999989      21.119999999999987
   353   1      3.5199999999999889      36.959999999999987      22.879999999999992
   354   1       5.279999999999994      35.199999999999989      22.879999999999992
   355   1       5.279999999999994      36.959999999999987      21.119999999999987
   356   1      3.5199999999999889      35.199999999999989      24.639999999999986
   357   1      3.5199999999999889      36.959999999999987      26.399999999999991
   358   1       5.279999999999994      35.199999999999989      26.399999999999991