model_files/CuFeNi/CuFeNi_30000/CuFeNi_544/CuFeNi_544_fcc_30001_temp.data (written by ASE) 

30001 	 atoms 
3  atom types
0.0                     123  xlo xhi
0.0                     123  ylo yhi
0.0                     123  zlo zhi


Atoms 

     1   1      1.8999999999999917      58.899999999999984       60.79999999999999
     2   1      1.8999999999999917       60.79999999999999      58.899999999999984
     3   1      122.99999999999999       60.79999999999999       60.79999999999999
     4   1      1.8999999999999917       60.79999999999999      62.700000000000003
     5   1      1.8999999999999917      62.700000000000003       60.79999999999999
     6   1      5.6999999999999886       55.09999999999998       60.79999999999999
     7   1      3.7999999999999905      58.899999999999984      58.899999999999984
     8   1      5.6999999999999886      56.999999999999986      58.899999999999984
     9   1      5.6999999999999886      58.899999999999984      56.999999999999986
    10   1      3.7999999999999905      56.999999999999986       60.79999999999999
    11   1      3.7999999999999905      58.899999999999984      62.700000000000003
    12   1      5.6999999999999886      56.999999999999986      62.700000000000003
    13   1      5.6999999999999886      58.899999999999984       60.79999999999999
    14   1      5.6999999999999886      58.899999999999984      64.599999999999994
    15   1      5.6999999999999886       60.79999999999999       55.09999999999998
    16   1      3.7999999999999905       60.79999999999999      56.999999999999986
    17   1      3.7999999999999905      62.700000000000003      58.899999999999984
    18   1      5.6999999999999886       60.79999999999999      58.899999999999984
    19   1      5.6999999999999886      62.700000000000003      56.999999999999986
    20   1      3.7999999999999905       60.79999999999999       60.79999999999999
    21   1      3.7999999999999905      62.700000000000003      62.700000000000003
    22   1      5.6999999999999886       60.79999999999999      62.700000000000003
    23   1      5.6999999999999886      62.700000000000003       60.79999999999999
    24   1      3.7999999999999905       60.79999999999999      64.599999999999994
    25   1      5.6999999999999886       60.79999999999999      66.499999999999986
    26   1      5.6999999999999886      62.700000000000003      64.599999999999994
    27   1      5.6999999999999886      64.599999999999994      58.899999999999984
    28   1      3.7999999999999905      64.599999999999994       60.79999999999999
    29   1      5.6999999999999886      64.599999999999994      62.700000000000003
    30   1      5.6999999999999886      66.499999999999986       60.79999999999999
    31   1      9.4999999999999876      47.499999999999986       60.79999999999999
    32   1      9.4999999999999876      49.399999999999984      58.899999999999984
    33   1      9.4999999999999876      51.299999999999983      56.999999999999986
    34   1      9.4999999999999876      49.399999999999984      62.700000000000003
    35   1      9.4999999999999876      51.299999999999983       60.79999999999999
    36   1      9.4999999999999876      51.299999999999983      64.599999999999994
    37   1      9.4999999999999876      53.199999999999989       55.09999999999998
    38   1      9.4999999999999876       55.09999999999998      53.199999999999989
    39   1      7.5999999999999881       55.09999999999998      58.899999999999984
    40   1      9.4999999999999876      53.199999999999989      58.899999999999984
    41   1      9.4999999999999876       55.09999999999998      56.999999999999986
    42   1      7.5999999999999881      53.199999999999989       60.79999999999999
    43   1      7.5999999999999881       55.09999999999998      62.700000000000003
    44   1      9.4999999999999876      53.199999999999989      62.700000000000003
    45   1      9.4999999999999876       55.09999999999998       60.79999999999999
    46   1      9.4999999999999876      53.199999999999989      66.499999999999986
    47   1      9.4999999999999876       55.09999999999998      64.599999999999994
    48   1      9.4999999999999876       55.09999999999998      68.399999999999977
    49   1      9.4999999999999876      56.999999999999986      51.299999999999983
    50   1      9.4999999999999876      58.899999999999984      49.399999999999984
    51   1      7.5999999999999881      58.899999999999984       55.09999999999998
    52   1      9.4999999999999876      56.999999999999986       55.09999999999998
    53   1      9.4999999999999876      58.899999999999984      53.199999999999989
    54   1      7.5999999999999881      56.999999999999986      56.999999999999986
    55   1      7.5999999999999881      58.899999999999984      58.899999999999984
    56   1      9.4999999999999876      56.999999999999986      58.899999999999984
    57   1      9.4999999999999876      58.899999999999984      56.999999999999986
    58   1      7.5999999999999881      56.999999999999986       60.79999999999999
    59   1      7.5999999999999881      58.899999999999984      62.700000000000003
    60   1      9.4999999999999876      56.999999999999986      62.700000000000003
    61   1      9.4999999999999876      58.899999999999984       60.79999999999999
    62   1      7.5999999999999881      56.999999999999986      64.599999999999994
    63   1      7.5999999999999881      58.899999999999984      66.499999999999986
    64   1      9.4999999999999876      56.999999999999986      66.499999999999986
    65   1      9.4999999999999876      58.899999999999984      64.599999999999994
    66   1      9.4999999999999876      56.999999999999986      70.299999999999983
    67   1      9.4999999999999876      58.899999999999984      68.399999999999977
    68   1      9.4999999999999876      58.899999999999984      72.199999999999974
    69   1      9.4999999999999876       60.79999999999999      47.499999999999986
    70   1      9.4999999999999876       60.79999999999999      51.299999999999983
    71   1      9.4999999999999876      62.700000000000003      49.399999999999984
    72   1      7.5999999999999881       60.79999999999999      53.199999999999989
    73   1      7.5999999999999881      62.700000000000003       55.09999999999998
    74   1      9.4999999999999876       60.79999999999999       55.09999999999998
    75   1      9.4999999999999876      62.700000000000003      53.199999999999989
    76   1      7.5999999999999881       60.79999999999999      56.999999999999986
    77   1      7.5999999999999881      62.700000000000003      58.899999999999984
    78   1      9.4999999999999876       60.79999999999999      58.899999999999984
    79   1      9.4999999999999876      62.700000000000003      56.999999999999986
    80   1      7.5999999999999881       60.79999999999999       60.79999999999999
    81   1      7.5999999999999881      62.700000000000003      62.700000000000003
    82   1      9.4999999999999876       60.79999999999999      62.700000000000003
    83   1      9.4999999999999876      62.700000000000003       60.79999999999999
    84   1      7.5999999999999881       60.79999999999999      64.599999999999994
    85   1      7.5999999999999881      62.700000000000003      66.499999999999986
    86   1      9.4999999999999876       60.79999999999999      66.499999999999986
    87   1      9.4999999999999876      62.700000000000003      64.599999999999994
    88   1      7.5999999999999881       60.79999999999999      68.399999999999977
    89   1      9.4999999999999876       60.79999999999999      70.299999999999983
    90   1      9.4999999999999876      62.700000000000003      68.399999999999977
    91   1      9.4999999999999876       60.79999999999999       74.09999999999998
    92   1      9.4999999999999876      62.700000000000003      72.199999999999974
    93   1      9.4999999999999876      64.599999999999994      51.299999999999983
    94   1      9.4999999999999876      64.599999999999994       55.09999999999998
    95   1      9.4999999999999876      66.499999999999986      53.199999999999989
    96   1      7.5999999999999881      64.599999999999994      56.999999999999986
    97   1      7.5999999999999881      66.499999999999986      58.899999999999984
    98   1      9.4999999999999876      64.599999999999994      58.899999999999984
    99   1      9.4999999999999876      66.499999999999986      56.999999999999986
   100   1      7.5999999999999881      64.599999999999994       60.79999999999999
   101   1      7.5999999999999881      66.499999999999986      62.700000000000003
   102   1      9.4999999999999876      64.599999999999994      62.700000000000003
   103   1      9.4999999999999876      66.499999999999986       60.79999999999999
   104   1      7.5999999999999881      64.599999999999994      64.599999999999994
   105   1      9.4999999999999876      64.599999999999994      66.499999999999986
   106   1      9.4999999999999876      66.499999999999986      64.599999999999994
   107   1      9.4999999999999876      64.599999999999994      70.299999999999983
   108   1      9.4999999999999876      66.499999999999986      68.399999999999977
   109   1      9.4999999999999876      68.399999999999977       55.09999999999998
   110   1      9.4999999999999876      68.399999999999977      58.899999999999984
   111   1      9.4999999999999876      70.299999999999983      56.999999999999986
   112   1      7.5999999999999881      68.399999999999977       60.79999999999999
   113   1      9.4999999999999876      68.399999999999977      62.700000000000003
   114   1      9.4999999999999876      70.299999999999983       60.79999999999999
   115   1      9.4999999999999876      68.399999999999977      66.499999999999986
   116   1      9.4999999999999876      70.299999999999983      64.599999999999994
   117   1      9.4999999999999876      72.199999999999974      58.899999999999984
   118   1      9.4999999999999876      72.199999999999974      62.700000000000003
   119   1      9.4999999999999876       74.09999999999998       60.79999999999999
   120   1      13.299999999999985      43.699999999999989       60.79999999999999
   121   1      11.399999999999986      47.499999999999986      58.899999999999984
   122   1      13.299999999999985      45.599999999999987      58.899999999999984
   123   1      13.299999999999985      47.499999999999986      56.999999999999986
   124   1      11.399999999999986      45.599999999999987       60.79999999999999
   125   1      11.399999999999986      47.499999999999986      62.700000000000003
   126   1      13.299999999999985      45.599999999999987      62.700000000000003
   127   1      13.299999999999985      47.499999999999986       60.79999999999999
   128   1      13.299999999999985      47.499999999999986      64.599999999999994
   129   1      11.399999999999986      51.299999999999983       55.09999999999998
   130   1      13.299999999999985      49.399999999999984       55.09999999999998
   131   1      13.299999999999985      51.299999999999983      53.199999999999989
   132   1      11.399999999999986      49.399999999999984      56.999999999999986
   133   1      11.399999999999986      51.299999999999983      58.899999999999984
   134   1      13.299999999999985      49.399999999999984      58.899999999999984
   135   1      13.299999999999985      51.299999999999983      56.999999999999986
   136   1      11.399999999999986      49.399999999999984       60.79999999999999
   137   1      11.399999999999986      51.299999999999983      62.700000000000003
   138   1      13.299999999999985      49.399999999999984      62.700000000000003
   139   1      13.299999999999985      51.299999999999983       60.79999999999999
   140   1      11.399999999999986      49.399999999999984      64.599999999999994
   141   1      11.399999999999986      51.299999999999983      66.499999999999986
   142   1      13.299999999999985      49.399999999999984      66.499999999999986
   143   1      13.299999999999985      51.299999999999983      64.599999999999994
   144   1      13.299999999999985      51.299999999999983      68.399999999999977
   145   1      11.399999999999986       55.09999999999998      51.299999999999983
   146   1      13.299999999999985      53.199999999999989      51.299999999999983
   147   1      13.299999999999985       55.09999999999998      49.399999999999984
   148   1      11.399999999999986      53.199999999999989      53.199999999999989
   149   1      11.399999999999986       55.09999999999998       55.09999999999998
   150   1      13.299999999999985      53.199999999999989       55.09999999999998
   151   1      13.299999999999985       55.09999999999998      53.199999999999989
   152   1      11.399999999999986      53.199999999999989      56.999999999999986
   153   1      11.399999999999986       55.09999999999998      58.899999999999984
   154   1      13.299999999999985      53.199999999999989      58.899999999999984
   155   1      13.299999999999985       55.09999999999998      56.999999999999986
   156   1      11.399999999999986      53.199999999999989       60.79999999999999
   157   1      11.399999999999986       55.09999999999998      62.700000000000003
   158   1      13.299999999999985      53.199999999999989      62.700000000000003
   159   1      13.299999999999985       55.09999999999998       60.79999999999999
   160   1      11.399999999999986      53.199999999999989      64.599999999999994
   161   1      11.399999999999986       55.09999999999998      66.499999999999986
   162   1      13.299999999999985      53.199999999999989      66.499999999999986
   163   1      13.299999999999985       55.09999999999998      64.599999999999994
   164   1      11.399999999999986      53.199999999999989      68.399999999999977
   165   1      11.399999999999986       55.09999999999998      70.299999999999983
   166   1      13.299999999999985      53.199999999999989      70.299999999999983
   167   1      13.299999999999985       55.09999999999998      68.399999999999977
   168   1      13.299999999999985       55.09999999999998      72.199999999999974
   169   1      11.399999999999986      58.899999999999984      47.499999999999986
   170   1      13.299999999999985      56.999999999999986      47.499999999999986
   171   1      13.299999999999985      58.899999999999984      45.599999999999987
   172   1      11.399999999999986      56.999999999999986      49.399999999999984
   173   1      11.399999999999986      58.899999999999984      51.299999999999983
   174   1      13.299999999999985      56.999999999999986      51.299999999999983
   175   1      13.299999999999985      58.899999999999984      49.399999999999984
   176   1      11.399999999999986      56.999999999999986      53.199999999999989
   177   1      11.399999999999986      58.899999999999984       55.09999999999998
   178   1      13.299999999999985      56.999999999999986       55.09999999999998
   179   1      13.299999999999985      58.899999999999984      53.199999999999989
   180   1      11.399999999999986      56.999999999999986      56.999999999999986
   181   1      11.399999999999986      58.899999999999984      58.899999999999984
   182   1      13.299999999999985      56.999999999999986      58.899999999999984
   183   1      13.299999999999985      58.899999999999984      56.999999999999986
   184   1      11.399999999999986      56.999999999999986       60.79999999999999
   185   1      11.399999999999986      58.899999999999984      62.700000000000003
   186   1      13.299999999999985      56.999999999999986      62.700000000000003
   187   1      13.299999999999985      58.899999999999984       60.79999999999999
   188   1      11.399999999999986      56.999999999999986      64.599999999999994
   189   1      11.399999999999986      58.899999999999984      66.499999999999986
   190   1      13.299999999999985      56.999999999999986      66.499999999999986
   191   1      13.299999999999985      58.899999999999984      64.599999999999994
   192   1      11.399999999999986      56.999999999999986      68.399999999999977
   193   1      11.399999999999986      58.899999999999984      70.299999999999983
   194   1      13.299999999999985      56.999999999999986      70.299999999999983
   195   1      13.299999999999985      58.899999999999984      68.399999999999977
   196   1      11.399999999999986      56.999999999999986      72.199999999999974
   197   1      11.399999999999986      58.899999999999984       74.09999999999998
   198   1      13.299999999999985      56.999999999999986       74.09999999999998
   199   1      13.299999999999985      58.899999999999984      72.199999999999974
   200   1      13.299999999999985      58.899999999999984      75.999999999999972
   201   1      13.299999999999985       60.79999999999999      43.699999999999989
   202   1      11.399999999999986       60.79999999999999      45.599999999999987
   203   1      11.399999999999986      62.700000000000003      47.499999999999986
   204   1      13.299999999999985       60.79999999999999      47.499999999999986
   205   1      13.299999999999985      62.700000000000003      45.599999999999987
   206   1      11.399999999999986       60.79999999999999      49.399999999999984
   207   1      11.399999999999986      62.700000000000003      51.299999999999983
   208   1      13.299999999999985       60.79999999999999      51.299999999999983
   209   1      13.299999999999985      62.700000000000003      49.399999999999984
   210   1      11.399999999999986       60.79999999999999      53.199999999999989
   211   1      11.399999999999986      62.700000000000003       55.09999999999998
   212   1      13.299999999999985       60.79999999999999       55.09999999999998
   213   1      13.299999999999985      62.700000000000003      53.199999999999989
   214   1      11.399999999999986       60.79999999999999      56.999999999999986
   215   1      11.399999999999986      62.700000000000003      58.899999999999984
   216   1      13.299999999999985       60.79999999999999      58.899999999999984
   217   1      13.299999999999985      62.700000000000003      56.999999999999986
   218   1      11.399999999999986       60.79999999999999       60.79999999999999
   219   1      11.399999999999986      62.700000000000003      62.700000000000003
   220   1      13.299999999999985       60.79999999999999      62.700000000000003
   221   1      13.299999999999985      62.700000000000003       60.79999999999999
   222   1      11.399999999999986       60.79999999999999      64.599999999999994
   223   1      11.399999999999986      62.700000000000003      66.499999999999986
   224   1      13.299999999999985       60.79999999999999      66.499999999999986
   225   1      13.299999999999985      62.700000000000003      64.599999999999994
   226   1      11.399999999999986       60.79999999999999      68.399999999999977
   227   1      11.399999999999986      62.700000000000003      70.299999999999983
   228   1      13.299999999999985       60.79999999999999      70.299999999999983
   229   1      13.299999999999985      62.700000000000003      68.399999999999977
   230   1      11.399999999999986       60.79999999999999      72.199999999999974
   231   1      11.399999999999986      62.700000000000003       74.09999999999998
   232   1      13.299999999999985       60.79999999999999       74.09999999999998
   233   1      13.299999999999985      62.700000000000003      72.199999999999974
   234   1      11.399999999999986       60.79999999999999      75.999999999999972
   235   1      13.299999999999985       60.79999999999999      77.899999999999977
   236   1      13.299999999999985      62.700000000000003      75.999999999999972
   237   1      13.299999999999985      64.599999999999994      47.499999999999986
   238   1      11.399999999999986      64.599999999999994      49.399999999999984
   239   1      11.399999999999986      66.499999999999986      51.299999999999983
   240   1      13.299999999999985      64.599999999999994      51.299999999999983
   241   1      13.299999999999985      66.499999999999986      49.399999999999984
   242   1      11.399999999999986      64.599999999999994      53.199999999999989
   243   1      11.399999999999986      66.499999999999986       55.09999999999998
   244   1      13.299999999999985      64.599999999999994       55.09999999999998
   245   1      13.299999999999985      66.499999999999986      53.199999999999989
   246   1      11.399999999999986      64.599999999999994      56.999999999999986
   247   1      11.399999999999986      66.499999999999986      58.899999999999984
   248   1      13.299999999999985      64.599999999999994      58.899999999999984
   249   1      13.299999999999985      66.499999999999986      56.999999999999986
   250   1      11.399999999999986      64.599999999999994       60.79999999999999
   251   1      11.399999999999986      66.499999999999986      62.700000000000003
   252   1      13.299999999999985      64.599999999999994      62.700000000000003
   253   1      13.299999999999985      66.499999999999986       60.79999999999999
   254   1      11.399999999999986      64.599999999999994      64.599999999999994
   255   1      11.399999999999986      66.499999999999986      66.499999999999986
   256   1      13.299999999999985      64.599999999999994      66.499999999999986
   257   1      13.299999999999985      66.499999999999986      64.599999999999994
   258   1      11.399999999999986      64.599999999999994      68.399999999999977
   259   1      11.399999999999986      66.499999999999986      70.299999999999983
   260   1      13.299999999999985      64.599999999999994      70.299999999999983
   261   1      13.299999999999985      66.499999999999986      68.399999999999977
   262   1      11.399999999999986      64.599999999999994      72.199999999999974
   263   1      13.299999999999985      64.599999999999994       74.09999999999998
   264   1      13.299999999999985      66.499999999999986      72.199999999999974
   265   1      13.299999999999985      68.399999999999977      51.299999999999983
   266   1      11.399999999999986      68.399999999999977      53.199999999999989
   267   1      11.399999999999986      70.299999999999983       55.09999999999998
   268   1      13.299999999999985      68.399999999999977       55.09999999999998
   269   1      13.299999999999985      70.299999999999983      53.199999999999989
   270   1      11.399999999999986      68.399999999999977      56.999999999999986
   271   1      11.399999999999986      70.299999999999983      58.899999999999984
   272   1      13.299999999999985      68.399999999999977      58.899999999999984
   273   1      13.299999999999985      70.299999999999983      56.999999999999986
   274   1      11.399999999999986      68.399999999999977       60.79999999999999
   275   1      11.399999999999986      70.299999999999983      62.700000000000003
   276   1      13.299999999999985      68.399999999999977      62.700000000000003
   277   1      13.299999999999985      70.299999999999983       60.79999999999999
   278   1      11.399999999999986      68.399999999999977      64.599999999999994
   279   1      11.399999999999986      70.299999999999983      66.499999999999986
   280   1      13.299999999999985      68.399999999999977      66.499999999999986
   281   1      13.299999999999985      70.299999999999983      64.599999999999994
   282   1      11.399999999999986      68.399999999999977      68.399999999999977
   283   1      13.299999999999985      68.399999999999977      70.299999999999983
   284   1      13.299999999999985      70.299999999999983      68.399999999999977
   285   1      13.299999999999985      72.199999999999974       55.09999999999998
   286   1      11.399999999999986      72.199999999999974      56.999999999999986
   287   1      11.399999999999986       74.09999999999998      58.899999999999984
   288   1      13.299999999999985      72.199999999999974      58.899999999999984
   289   1      13.299999999999985       74.09999999999998      56.999999999999986
   290   1      11.399999999999986      72.199999999999974       60.79999999999999
   291   1      11.399999999999986       74.09999999999998      62.700000000000003
   292   1      13.299999999999985      72.199999999999974      62.700000000000003
   293   1      13.299999999999985       74.09999999999998       60.79999999999999
   294   1      11.399999999999986      72.199999999999974      64.599999999999994
   295   1      13.299999999999985      72.199999999999974      66.499999999999986
   296   1      13.299999999999985       74.09999999999998      64.599999999999994
   297   1      13.299999999999985      75.999999999999972      58.899999999999984
   298   1      11.399999999999986      75.999999999999972       60.79999999999999
   299   1      13.299999999999985      75.999999999999972      62.700000000000003
   300   1      13.299999999999985      77.899999999999977       60.79999999999999
   301   1       17.09999999999998      39.899999999999977       60.79999999999999
   302   1       15.19999999999999      43.699999999999989      58.899999999999984
   303   1       17.09999999999998       41.79999999999999      58.899999999999984
   304   1       17.09999999999998      43.699999999999989      56.999999999999986
   305   1       15.19999999999999       41.79999999999999       60.79999999999999
   306   1       15.19999999999999      43.699999999999989      62.700000000000003
   307   1       17.09999999999998       41.79999999999999      62.700000000000003
   308   1       17.09999999999998      43.699999999999989       60.79999999999999
   309   1       17.09999999999998      43.699999999999989      64.599999999999994
   310   1       15.19999999999999      47.499999999999986       55.09999999999998
   311   1       17.09999999999998      45.599999999999987       55.09999999999998
   312   1       17.09999999999998      47.499999999999986      53.199999999999989
   313   1       15.19999999999999      45.599999999999987      56.999999999999986
   314   1       15.19999999999999      47.499999999999986      58.899999999999984
   315   1       17.09999999999998      45.599999999999987      58.899999999999984
   316   1       17.09999999999998      47.499999999999986      56.999999999999986
   317   1       15.19999999999999      45.599999999999987       60.79999999999999
   318   1       15.19999999999999      47.499999999999986      62.700000000000003
   319   1       17.09999999999998      45.599999999999987      62.700000000000003
   320   1       17.09999999999998      47.499999999999986       60.79999999999999
   321   1       15.19999999999999      45.599999999999987      64.599999999999994
   322   1       15.19999999999999      47.499999999999986      66.499999999999986
   323   1       17.09999999999998      45.599999999999987      66.499999999999986
   324   1       17.09999999999998      47.499999999999986      64.599999999999994
   325   1       17.09999999999998      47.499999999999986      68.399999999999977
   326   1       15.19999999999999      51.299999999999983      51.299999999999983
   327   1       17.09999999999998      49.399999999999984      51.299999999999983
   328   1       17.09999999999998      51.299999999999983      49.399999999999984
   329   1       15.19999999999999      49.399999999999984      53.199999999999989
   330   1       15.19999999999999      51.299999999999983       55.09999999999998
   331   1       17.09999999999998      49.399999999999984       55.09999999999998
   332   1       17.09999999999998      51.299999999999983      53.199999999999989
   333   1       15.19999999999999      49.399999999999984      56.999999999999986
   334   1       15.19999999999999      51.299999999999983      58.899999999999984
   335   1       17.09999999999998      49.399999999999984      58.899999999999984
   336   1       17.09999999999998      51.299999999999983      56.999999999999986
   337   1       15.19999999999999      49.399999999999984       60.79999999999999
   338   1       15.19999999999999      51.299999999999983      62.700000000000003
   339   1       17.09999999999998      49.399999999999984      62.700000000000003
   340   1       17.09999999999998      51.299999999999983       60.79999999999999
   341   1       15.19999999999999      49.399999999999984      64.599999999999994
   342   1       15.19999999999999      51.299999999999983      66.499999999999986
   343   1       17.09999999999998      49.399999999999984      66.499999999999986
   344   1       17.09999999999998      51.299999999999983      64.599999999999994
   345   1       15.19999999999999      49.399999999999984      68.399999999999977
   346   1       15.19999999999999      51.299999999999983      70.299999999999983
   347   1       17.09999999999998      49.399999999999984      70.299999999999983
   348   1       17.09999999999998      51.299999999999983      68.399999999999977
   349   1       17.09999999999998      51.299999999999983      72.199999999999974
   350   1       15.19999999999999       55.09999999999998      47.499999999999986
   351   1       17.09999999999998      53.199999999999989      47.499999999999986
   352   1       17.09999999999998       55.09999999999998      45.599999999999987
   353   1       15.19999999999999      53.199999999999989      49.399999999999984
   354   1       15.19999999999999       55.09999999999998      51.299999999999983
   355   1       17.09999999999998      53.199999999999989      51.299999999999983
   356   1       17.09999999999998       55.09999999999998      49.399999999999984
   357   1       15.19999999999999      53.199999999999989      53.199999999999989
   358   1       15.19999999999999       55.09999999999998       55.09999999999998