LAMMPS data file via write_data, version 30 Nov 2020, timestep = 0

29683 atoms
3 atom types

0 123 xlo xhi
0 123 ylo yhi
0 123 zlo zhi

Masses

1 63.546
2 55.845
3 58.6934

Atoms # atomic

1 3 1.7899999999999994 59.07000000000001 60.86000000000001 0 0 0
2 2 1.7899999999999994 60.86000000000001 59.07000000000001 0 0 0
3 3 0 60.86000000000001 60.86000000000001 0 0 0
6 1 5.3700000000000045 55.49000000000001 60.86000000000001 0 0 0
7 2 3.5799999999999987 59.07000000000001 59.07000000000001 0 0 0
8 1 5.3700000000000045 57.28000000000001 59.07000000000001 0 0 0
9 3 5.3700000000000045 59.07000000000001 57.28000000000001 0 0 0
10 1 3.5799999999999987 57.28000000000001 60.86000000000001 0 0 0
13 1 5.3700000000000045 59.07000000000001 60.86000000000001 0 0 0
15 3 5.3700000000000045 60.86000000000001 55.49000000000001 0 0 0
16 2 3.5799999999999987 60.86000000000001 57.28000000000001 0 0 0
18 1 5.3700000000000045 60.86000000000001 59.07000000000001 0 0 0
20 1 3.5799999999999987 60.86000000000001 60.86000000000001 0 0 0
31 2 8.950000000000005 51.91000000000001 60.86000000000001 0 0 0
32 3 7.160000000000005 55.49000000000001 59.07000000000001 0 0 0
33 2 8.950000000000005 53.70000000000001 59.07000000000001 0 0 0
34 2 8.950000000000005 55.49000000000001 57.28000000000001 0 0 0
35 1 7.160000000000005 53.70000000000001 60.86000000000001 0 0 0
38 1 8.950000000000005 55.49000000000001 60.86000000000001 0 0 0
40 2 7.160000000000005 59.07000000000001 55.49000000000001 0 0 0
41 1 8.950000000000005 57.28000000000001 55.49000000000001 0 0 0
42 1 8.950000000000005 59.07000000000001 53.70000000000001 0 0 0
43 1 7.160000000000005 57.28000000000001 57.28000000000001 0 0 0
44 3 7.160000000000005 59.07000000000001 59.07000000000001 0 0 0
45 2 8.950000000000005 57.28000000000001 59.07000000000001 0 0 0
46 2 8.950000000000005 59.07000000000001 57.28000000000001 0 0 0
47 1 7.160000000000005 57.28000000000001 60.86000000000001 0 0 0
50 2 8.950000000000005 59.07000000000001 60.86000000000001 0 0 0
56 1 8.950000000000005 60.86000000000001 51.91000000000001 0 0 0
57 1 7.160000000000005 60.86000000000001 53.70000000000001 0 0 0
59 3 8.950000000000005 60.86000000000001 55.49000000000001 0 0 0
61 1 7.160000000000005 60.86000000000001 57.28000000000001 0 0 0
63 1 8.950000000000005 60.86000000000001 59.07000000000001 0 0 0
65 1 7.160000000000005 60.86000000000001 60.86000000000001 0 0 0
92 1 12.530000000000003 48.330000000000005 60.86000000000001 0 0 0
93 1 10.740000000000002 51.91000000000001 59.07000000000001 0 0 0
94 1 12.530000000000003 50.12000000000001 59.07000000000001 0 0 0
95 1 12.530000000000003 51.91000000000001 57.28000000000001 0 0 0
96 3 10.740000000000002 50.12000000000001 60.86000000000001 0 0 0
99 1 12.530000000000003 51.91000000000001 60.86000000000001 0 0 0
101 3 10.740000000000002 55.49000000000001 55.49000000000001 0 0 0
102 1 12.530000000000003 53.70000000000001 55.49000000000001 0 0 0
103 1 12.530000000000003 55.49000000000001 53.70000000000001 0 0 0
104 1 10.740000000000002 53.70000000000001 57.28000000000001 0 0 0
105 1 10.740000000000002 55.49000000000001 59.07000000000001 0 0 0
106 1 12.530000000000003 53.70000000000001 59.07000000000001 0 0 0
107 1 12.530000000000003 55.49000000000001 57.28000000000001 0 0 0
108 3 10.740000000000002 53.70000000000001 60.86000000000001 0 0 0
111 2 12.530000000000003 55.49000000000001 60.86000000000001 0 0 0
117 1 10.740000000000002 59.07000000000001 51.91000000000001 0 0 0
118 1 12.530000000000003 57.28000000000001 51.91000000000001 0 0 0
119 1 12.530000000000003 59.07000000000001 50.12000000000001 0 0 0
120 1 10.740000000000002 57.28000000000001 53.70000000000001 0 0 0
121 1 10.740000000000002 59.07000000000001 55.49000000000001 0 0 0
122 2 12.530000000000003 57.28000000000001 55.49000000000001 0 0 0
123 1 12.530000000000003 59.07000000000001 53.70000000000001 0 0 0
124 3 10.740000000000002 57.28000000000001 57.28000000000001 0 0 0
125 1 10.740000000000002 59.07000000000001 59.07000000000001 0 0 0
126 3 12.530000000000003 57.28000000000001 59.07000000000001 0 0 0
127 1 12.530000000000003 59.07000000000001 57.28000000000001 0 0 0
128 2 10.740000000000002 57.28000000000001 60.86000000000001 0 0 0
131 2 12.530000000000003 59.07000000000001 60.86000000000001 0 0 0
141 1 12.530000000000003 60.86000000000001 48.330000000000005 0 0 0
142 2 10.740000000000002 60.86000000000001 50.12000000000001 0 0 0
144 1 12.530000000000003 60.86000000000001 51.91000000000001 0 0 0
146 3 10.740000000000002 60.86000000000001 53.70000000000001 0 0 0
148 2 12.530000000000003 60.86000000000001 55.49000000000001 0 0 0
150 1 10.740000000000002 60.86000000000001 57.28000000000001 0 0 0
152 1 12.530000000000003 60.86000000000001 59.07000000000001 0 0 0
154 3 10.740000000000002 60.86000000000001 60.86000000000001 0 0 0
205 1 16.11 44.75000000000001 60.86000000000001 0 0 0
206 1 14.320000000000002 48.330000000000005 59.07000000000001 0 0 0
207 3 16.11 46.54000000000001 59.07000000000001 0 0 0
208 1 16.11 48.330000000000005 57.28000000000001 0 0 0
209 1 14.320000000000002 46.54000000000001 60.86000000000001 0 0 0
212 1 16.11 48.330000000000005 60.86000000000001 0 0 0
214 2 14.320000000000002 51.91000000000001 55.49000000000001 0 0 0
215 1 16.11 50.12000000000001 55.49000000000001 0 0 0
216 1 16.11 51.91000000000001 53.70000000000001 0 0 0
217 1 14.320000000000002 50.12000000000001 57.28000000000001 0 0 0
218 1 14.320000000000002 51.91000000000001 59.07000000000001 0 0 0
219 3 16.11 50.12000000000001 59.07000000000001 0 0 0
220 3 16.11 51.91000000000001 57.28000000000001 0 0 0
221 3 14.320000000000002 50.12000000000001 60.86000000000001 0 0 0
224 2 16.11 51.91000000000001 60.86000000000001 0 0 0
230 2 14.320000000000002 55.49000000000001 51.91000000000001 0 0 0
231 1 16.11 53.70000000000001 51.91000000000001 0 0 0
232 3 16.11 55.49000000000001 50.12000000000001 0 0 0
233 2 14.320000000000002 53.70000000000001 53.70000000000001 0 0 0
234 1 14.320000000000002 55.49000000000001 55.49000000000001 0 0 0
235 1 16.11 53.70000000000001 55.49000000000001 0 0 0
236 1 16.11 55.49000000000001 53.70000000000001 0 0 0
237 2 14.320000000000002 53.70000000000001 57.28000000000001 0 0 0
238 3 14.320000000000002 55.49000000000001 59.07000000000001 0 0 0
239 1 16.11 53.70000000000001 59.07000000000001 0 0 0
240 2 16.11 55.49000000000001 57.28000000000001 0 0 0
241 1 14.320000000000002 53.70000000000001 60.86000000000001 0 0 0
244 1 16.11 55.49000000000001 60.86000000000001 0 0 0
254 1 14.320000000000002 59.07000000000001 48.330000000000005 0 0 0
255 1 16.11 57.28000000000001 48.330000000000005 0 0 0
256 1 16.11 59.07000000000001 46.54000000000001 0 0 0
257 3 14.320000000000002 57.28000000000001 50.12000000000001 0 0 0
258 1 14.320000000000002 59.07000000000001 51.91000000000001 0 0 0
259 2 16.11 57.28000000000001 51.91000000000001 0 0 0
260 1 16.11 59.07000000000001 50.12000000000001 0 0 0
261 1 14.320000000000002 57.28000000000001 53.70000000000001 0 0 0
262 2 14.320000000000002 59.07000000000001 55.49000000000001 0 0 0
263 1 16.11 57.28000000000001 55.49000000000001 0 0 0
264 1 16.11 59.07000000000001 53.70000000000001 0 0 0
265 3 14.320000000000002 57.28000000000001 57.28000000000001 0 0 0
266 3 14.320000000000002 59.07000000000001 59.07000000000001 0 0 0
267 2 16.11 57.28000000000001 59.07000000000001 0 0 0
268 3 16.11 59.07000000000001 57.28000000000001 0 0 0
269 1 14.320000000000002 57.28000000000001 60.86000000000001 0 0 0
272 1 16.11 59.07000000000001 60.86000000000001 0 0 0
286 1 16.11 60.86000000000001 44.75000000000001 0 0 0
287 1 14.320000000000002 60.86000000000001 46.54000000000001 0 0 0
289 1 16.11 60.86000000000001 48.330000000000005 0 0 0
291 3 14.320000000000002 60.86000000000001 50.12000000000001 0 0 0
293 2 16.11 60.86000000000001 51.91000000000001 0 0 0
295 2 14.320000000000002 60.86000000000001 53.70000000000001 0 0 0
297 1 16.11 60.86000000000001 55.49000000000001 0 0 0
299 1 14.320000000000002 60.86000000000001 57.28000000000001 0 0 0
301 1 16.11 60.86000000000001 59.07000000000001 0 0 0
303 3 14.320000000000002 60.86000000000001 60.86000000000001 0 0 0
386 1 19.689999999999998 41.17000000000001 60.86000000000001 0 0 0
387 1 17.90000000000001 44.75000000000001 59.07000000000001 0 0 0
388 2 19.689999999999998 42.96 59.07000000000001 0 0 0
389 3 19.689999999999998 44.75000000000001 57.28000000000001 0 0 0
390 2 17.90000000000001 42.96 60.86000000000001 0 0 0
393 2 19.689999999999998 44.75000000000001 60.86000000000001 0 0 0
395 2 17.90000000000001 48.330000000000005 55.49000000000001 0 0 0
396 1 19.689999999999998 46.54000000000001 55.49000000000001 0 0 0
397 1 19.689999999999998 48.330000000000005 53.70000000000001 0 0 0
398 1 17.90000000000001 46.54000000000001 57.28000000000001 0 0 0
399 1 17.90000000000001 48.330000000000005 59.07000000000001 0 0 0
400 1 19.689999999999998 46.54000000000001 59.07000000000001 0 0 0
401 3 19.689999999999998 48.330000000000005 57.28000000000001 0 0 0
402 2 17.90000000000001 46.54000000000001 60.86000000000001 0 0 0
405 3 19.689999999999998 48.330000000000005 60.86000000000001 0 0 0
411 3 17.90000000000001 51.91000000000001 51.91000000000001 0 0 0
412 1 19.689999999999998 50.12000000000001 51.91000000000001 0 0 0
413 1 19.689999999999998 51.91000000000001 50.12000000000001 0 0 0
414 1 17.90000000000001 50.12000000000001 53.70000000000001 0 0 0
415 1 17.90000000000001 51.91000000000001 55.49000000000001 0 0 0
416 1 19.689999999999998 50.12000000000001 55.49000000000001 0 0 0
417 1 19.689999999999998 51.91000000000001 53.70000000000001 0 0 0
418 3 17.90000000000001 50.12000000000001 57.28000000000001 0 0 0
419 3 17.90000000000001 51.91000000000001 59.07000000000001 0 0 0
420 2 19.689999999999998 50.12000000000001 59.07000000000001 0 0 0
421 2 19.689999999999998 51.91000000000001 57.28000000000001 0 0 0
422 1 17.90000000000001 50.12000000000001 60.86000000000001 0 0 0
425 1 19.689999999999998 51.91000000000001 60.86000000000001 0 0 0
435 3 17.90000000000001 55.49000000000001 48.330000000000005 0 0 0
436 3 19.689999999999998 53.70000000000001 48.330000000000005 0 0 0
437 2 19.689999999999998 55.49000000000001 46.54000000000001 0 0 0
438 3 17.90000000000001 53.70000000000001 50.12000000000001 0 0 0
439 1 17.90000000000001 55.49000000000001 51.91000000000001 0 0 0
440 1 19.689999999999998 53.70000000000001 51.91000000000001 0 0 0
441 1 19.689999999999998 55.49000000000001 50.12000000000001 0 0 0
442 2 17.90000000000001 53.70000000000001 53.70000000000001 0 0 0
443 1 17.90000000000001 55.49000000000001 55.49000000000001 0 0 0
444 1 19.689999999999998 53.70000000000001 55.49000000000001 0 0 0
445 2 19.689999999999998 55.49000000000001 53.70000000000001 0 0 0
446 3 17.90000000000001 53.70000000000001 57.28000000000001 0 0 0
447 1 17.90000000000001 55.49000000000001 59.07000000000001 0 0 0
448 1 19.689999999999998 53.70000000000001 59.07000000000001 0 0 0
449 3 19.689999999999998 55.49000000000001 57.28000000000001 0 0 0
450 1 17.90000000000001 53.70000000000001 60.86000000000001 0 0 0
453 1 19.689999999999998 55.49000000000001 60.86000000000001 0 0 0
467 1 17.90000000000001 59.07000000000001 44.75000000000001 0 0 0
468 3 19.689999999999998 57.28000000000001 44.75000000000001 0 0 0
469 3 19.689999999999998 59.07000000000001 42.96 0 0 0
470 1 17.90000000000001 57.28000000000001 46.54000000000001 0 0 0
471 3 17.90000000000001 59.07000000000001 48.330000000000005 0 0 0
472 1 19.689999999999998 57.28000000000001 48.330000000000005 0 0 0
473 1 19.689999999999998 59.07000000000001 46.54000000000001 0 0 0
474 3 17.90000000000001 57.28000000000001 50.12000000000001 0 0 0
475 1 17.90000000000001 59.07000000000001 51.91000000000001 0 0 0
476 1 19.689999999999998 57.28000000000001 51.91000000000001 0 0 0
477 2 19.689999999999998 59.07000000000001 50.12000000000001 0 0 0
478 2 17.90000000000001 57.28000000000001 53.70000000000001 0 0 0
479 1 17.90000000000001 59.07000000000001 55.49000000000001 0 0 0
480 2 19.689999999999998 57.28000000000001 55.49000000000001 0 0 0
481 1 19.689999999999998 59.07000000000001 53.70000000000001 0 0 0
482 1 17.90000000000001 57.28000000000001 57.28000000000001 0 0 0
483 1 17.90000000000001 59.07000000000001 59.07000000000001 0 0 0
484 3 19.689999999999998 57.28000000000001 59.07000000000001 0 0 0
485 1 19.689999999999998 59.07000000000001 57.28000000000001 0 0 0
486 1 17.90000000000001 57.28000000000001 60.86000000000001 0 0 0
489 1 19.689999999999998 59.07000000000001 60.86000000000001 0 0 0
507 1 19.689999999999998 60.86000000000001 41.17000000000001 0 0 0
508 1 17.90000000000001 60.86000000000001 42.96 0 0 0
510 1 19.689999999999998 60.86000000000001 44.75000000000001 0 0 0
512 2 17.90000000000001 60.86000000000001 46.54000000000001 0 0 0
514 1 19.689999999999998 60.86000000000001 48.330000000000005 0 0 0
516 1 17.90000000000001 60.86000000000001 50.12000000000001 0 0 0
518 2 19.689999999999998 60.86000000000001 51.91000000000001 0 0 0
520 1 17.90000000000001 60.86000000000001 53.70000000000001 0 0 0
522 2 19.689999999999998 60.86000000000001 55.49000000000001 0 0 0
524 1 17.90000000000001 60.86000000000001 57.28000000000001 0 0 0
526 2 19.689999999999998 60.86000000000001 59.07000000000001 0 0 0
528 1 17.90000000000001 60.86000000000001 60.86000000000001 0 0 0
651 1 23.270000000000007 37.59 60.86000000000001 0 0 0
652 1 21.480000000000004 41.17000000000001 59.07000000000001 0 0 0
653 1 23.270000000000007 39.38000000000001 59.07000000000001 0 0 0
654 1 23.270000000000007 41.17000000000001 57.28000000000001 0 0 0
655 2 21.480000000000004 39.38000000000001 60.86000000000001 0 0 0
658 2 23.270000000000007 41.17000000000001 60.86000000000001 0 0 0
660 1 21.480000000000004 44.75000000000001 55.49000000000001 0 0 0
661 2 23.270000000000007 42.96 55.49000000000001 0 0 0
662 1 23.270000000000007 44.75000000000001 53.70000000000001 0 0 0
663 1 21.480000000000004 42.96 57.28000000000001 0 0 0
664 1 21.480000000000004 44.75000000000001 59.07000000000001 0 0 0
665 1 23.270000000000007 42.96 59.07000000000001 0 0 0
666 1 23.270000000000007 44.75000000000001 57.28000000000001 0 0 0
667 3 21.480000000000004 42.96 60.86000000000001 0 0 0
670 1 23.270000000000007 44.75000000000001 60.86000000000001 0 0 0
676 1 21.480000000000004 48.330000000000005 48.330000000000005 0 0 0
677 1 23.270000000000007 46.54000000000001 48.330000000000005 0 0 0
678 2 23.270000000000007 48.330000000000005 46.54000000000001 0 0 0
679 1 21.480000000000004 48.330000000000005 51.91000000000001 0 0 0
680 1 23.270000000000007 46.54000000000001 51.91000000000001 0 0 0
681 1 23.270000000000007 48.330000000000005 50.12000000000001 0 0 0
682 2 21.480000000000004 46.54000000000001 53.70000000000001 0 0 0
683 2 21.480000000000004 48.330000000000005 55.49000000000001 0 0 0
684 2 23.270000000000007 46.54000000000001 55.49000000000001 0 0 0
685 1 23.270000000000007 48.330000000000005 53.70000000000001 0 0 0
686 3 21.480000000000004 46.54000000000001 57.28000000000001 0 0 0
687 2 21.480000000000004 48.330000000000005 59.07000000000001 0 0 0
688 1 23.270000000000007 46.54000000000001 59.07000000000001 0 0 0
689 1 23.270000000000007 48.330000000000005 57.28000000000001 0 0 0
690 2 21.480000000000004 46.54000000000001 60.86000000000001 0 0 0
693 3 23.270000000000007 48.330000000000005 60.86000000000001 0 0 0
706 2 21.480000000000004 51.91000000000001 48.330000000000005 0 0 0
707 2 23.270000000000007 50.12000000000001 48.330000000000005 0 0 0
708 3 23.270000000000007 51.91000000000001 46.54000000000001 0 0 0
709 1 21.480000000000004 50.12000000000001 50.12000000000001 0 0 0
710 3 21.480000000000004 51.91000000000001 51.91000000000001 0 0 0
711 1 23.270000000000007 50.12000000000001 51.91000000000001 0 0 0
712 1 23.270000000000007 51.91000000000001 50.12000000000001 0 0 0
713 1 21.480000000000004 50.12000000000001 53.70000000000001 0 0 0
714 1 21.480000000000004 51.91000000000001 55.49000000000001 0 0 0
715 1 23.270000000000007 50.12000000000001 55.49000000000001 0 0 0
716 1 23.270000000000007 51.91000000000001 53.70000000000001 0 0 0
717 2 21.480000000000004 50.12000000000001 57.28000000000001 0 0 0
718 1 21.480000000000004 51.91000000000001 59.07000000000001 0 0 0
719 1 23.270000000000007 50.12000000000001 59.07000000000001 0 0 0
720 1 23.270000000000007 51.91000000000001 57.28000000000001 0 0 0
721 1 21.480000000000004 50.12000000000001 60.86000000000001 0 0 0
724 1 23.270000000000007 51.91000000000001 60.86000000000001 0 0 0
738 1 21.480000000000004 55.49000000000001 44.75000000000001 0 0 0
739 2 23.270000000000007 53.70000000000001 44.75000000000001 0 0 0
740 1 23.270000000000007 55.49000000000001 42.96 0 0 0
741 1 21.480000000000004 53.70000000000001 46.54000000000001 0 0 0
742 2 21.480000000000004 55.49000000000001 48.330000000000005 0 0 0
743 1 23.270000000000007 53.70000000000001 48.330000000000005 0 0 0
744 3 23.270000000000007 55.49000000000001 46.54000000000001 0 0 0
745 2 21.480000000000004 53.70000000000001 50.12000000000001 0 0 0
746 1 21.480000000000004 55.49000000000001 51.91000000000001 0 0 0
747 1 23.270000000000007 53.70000000000001 51.91000000000001 0 0 0
748 1 23.270000000000007 55.49000000000001 50.12000000000001 0 0 0
749 3 21.480000000000004 53.70000000000001 53.70000000000001 0 0 0
750 1 21.480000000000004 55.49000000000001 55.49000000000001 0 0 0
751 1 23.270000000000007 53.70000000000001 55.49000000000001 0 0 0
752 3 23.270000000000007 55.49000000000001 53.70000000000001 0 0 0
753 1 21.480000000000004 53.70000000000001 57.28000000000001 0 0 0
754 1 21.480000000000004 55.49000000000001 59.07000000000001 0 0 0
755 3 23.270000000000007 53.70000000000001 59.07000000000001 0 0 0
756 1 23.270000000000007 55.49000000000001 57.28000000000001 0 0 0
757 3 21.480000000000004 53.70000000000001 60.86000000000001 0 0 0
760 3 23.270000000000007 55.49000000000001 60.86000000000001 0 0 0
778 1 21.480000000000004 59.07000000000001 41.17000000000001 0 0 0
779 2 23.270000000000007 57.28000000000001 41.17000000000001 0 0 0
780 1 23.270000000000007 59.07000000000001 39.38000000000001 0 0 0
781 1 21.480000000000004 57.28000000000001 42.96 0 0 0
782 2 21.480000000000004 59.07000000000001 44.75000000000001 0 0 0
783 1 23.270000000000007 57.28000000000001 44.75000000000001 0 0 0
784 1 23.270000000000007 59.07000000000001 42.96 0 0 0
785 1 21.480000000000004 57.28000000000001 46.54000000000001 0 0 0
786 3 21.480000000000004 59.07000000000001 48.330000000000005 0 0 0
787 1 23.270000000000007 57.28000000000001 48.330000000000005 0 0 0
788 1 23.270000000000007 59.07000000000001 46.54000000000001 0 0 0
789 3 21.480000000000004 57.28000000000001 50.12000000000001 0 0 0
790 3 21.480000000000004 59.07000000000001 51.91000000000001 0 0 0
791 3 23.270000000000007 57.28000000000001 51.91000000000001 0 0 0
792 1 23.270000000000007 59.07000000000001 50.12000000000001 0 0 0
793 1 21.480000000000004 57.28000000000001 53.70000000000001 0 0 0
794 1 21.480000000000004 59.07000000000001 55.49000000000001 0 0 0
795 1 23.270000000000007 57.28000000000001 55.49000000000001 0 0 0
796 2 23.270000000000007 59.07000000000001 53.70000000000001 0 0 0
797 3 21.480000000000004 57.28000000000001 57.28000000000001 0 0 0
798 1 21.480000000000004 59.07000000000001 59.07000000000001 0 0 0
799 3 23.270000000000007 57.28000000000001 59.07000000000001 0 0 0
800 1 23.270000000000007 59.07000000000001 57.28000000000001 0 0 0
801 2 21.480000000000004 57.28000000000001 60.86000000000001 0 0 0
804 2 23.270000000000007 59.07000000000001 60.86000000000001 0 0 0
826 3 23.270000000000007 60.86000000000001 37.59 0 0 0
827 1 21.480000000000004 60.86000000000001 39.38000000000001 0 0 0
829 2 23.270000000000007 60.86000000000001 41.17000000000001 0 0 0
831 1 21.480000000000004 60.86000000000001 42.96 0 0 0
833 1 23.270000000000007 60.86000000000001 44.75000000000001 0 0 0
835 2 21.480000000000004 60.86000000000001 46.54000000000001 0 0 0
837 1 23.270000000000007 60.86000000000001 48.330000000000005 0 0 0
839 2 21.480000000000004 60.86000000000001 50.12000000000001 0 0 0
841 3 23.270000000000007 60.86000000000001 51.91000000000001 0 0 0
843 2 21.480000000000004 60.86000000000001 53.70000000000001 0 0 0
845 1 23.270000000000007 60.86000000000001 55.49000000000001 0 0 0
847 1 21.480000000000004 60.86000000000001 57.28000000000001 0 0 0
849 1 23.270000000000007 60.86000000000001 59.07000000000001 0 0 0
851 1 21.480000000000004 60.86000000000001 60.86000000000001 0 0 0
1028 1 26.850000000000005 34.01 60.86000000000001 0 0 0
1029 3 25.060000000000006 37.59 59.07000000000001 0 0 0
1030 1 26.850000000000005 35.80000000000001 59.07000000000001 0 0 0
1031 1 26.850000000000005 37.59 57.28000000000001 0 0 0
1032 1 25.060000000000006 35.80000000000001 60.86000000000001 0 0 0
1035 1 26.850000000000005 37.59 60.86000000000001 0 0 0
1037 1 25.060000000000006 41.17000000000001 55.49000000000001 0 0 0
1038 3 26.850000000000005 39.38000000000001 55.49000000000001 0 0 0
1039 1 26.850000000000005 41.17000000000001 53.70000000000001 0 0 0
1040 2 25.060000000000006 39.38000000000001 57.28000000000001 0 0 0
1041 3 25.060000000000006 41.17000000000001 59.07000000000001 0 0 0
1042 3 26.850000000000005 39.38000000000001 59.07000000000001 0 0 0
1043 1 26.850000000000005 41.17000000000001 57.28000000000001 0 0 0
1044 1 25.060000000000006 39.38000000000001 60.86000000000001 0 0 0
1047 2 26.850000000000005 41.17000000000001 60.86000000000001 0 0 0
1053 1 25.060000000000006 44.75000000000001 48.330000000000005 0 0 0
1054 3 26.850000000000005 42.96 48.330000000000005 0 0 0
1055 1 26.850000000000005 44.75000000000001 46.54000000000001 0 0 0
1056 1 25.060000000000006 44.75000000000001 51.91000000000001 0 0 0
1057 1 26.850000000000005 42.96 51.91000000000001 0 0 0
1058 1 26.850000000000005 44.75000000000001 50.12000000000001 0 0 0
1059 2 25.060000000000006 42.96 53.70000000000001 0 0 0
1060 3 25.060000000000006 44.75000000000001 55.49000000000001 0 0 0
1061 2 26.850000000000005 42.96 55.49000000000001 0 0 0
1062 2 26.850000000000005 44.75000000000001 53.70000000000001 0 0 0
1063 3 25.060000000000006 42.96 57.28000000000001 0 0 0
1064 1 25.060000000000006 44.75000000000001 59.07000000000001 0 0 0
1065 1 26.850000000000005 42.96 59.07000000000001 0 0 0
1066 1 26.850000000000005 44.75000000000001 57.28000000000001 0 0 0
1067 1 25.060000000000006 42.96 60.86000000000001 0 0 0
1070 1 26.850000000000005 44.75000000000001 60.86000000000001 0 0 0
1083 1 25.060000000000006 48.330000000000005 44.75000000000001 0 0 0
1084 2 26.850000000000005 46.54000000000001 44.75000000000001 0 0 0
1085 1 26.850000000000005 48.330000000000005 42.96 0 0 0
1086 1 25.060000000000006 46.54000000000001 46.54000000000001 0 0 0
1087 1 25.060000000000006 48.330000000000005 48.330000000000005 0 0 0
1088 2 26.850000000000005 46.54000000000001 48.330000000000005 0 0 0
1089 3 26.850000000000005 48.330000000000005 46.54000000000001 0 0 0
1090 2 25.060000000000006 46.54000000000001 50.12000000000001 0 0 0
1091 2 25.060000000000006 48.330000000000005 51.91000000000001 0 0 0
1092 2 26.850000000000005 46.54000000000001 51.91000000000001 0 0 0
1093 3 26.850000000000005 48.330000000000005 50.12000000000001 0 0 0
1094 2 25.060000000000006 46.54000000000001 53.70000000000001 0 0 0
1095 1 25.060000000000006 48.330000000000005 55.49000000000001 0 0 0
1096 2 26.850000000000005 46.54000000000001 55.49000000000001 0 0 0
1097 1 26.850000000000005 48.330000000000005 53.70000000000001 0 0 0
1098 3 25.060000000000006 46.54000000000001 57.28000000000001 0 0 0
1099 1 25.060000000000006 48.330000000000005 59.07000000000001 0 0 0
1100 1 26.850000000000005 46.54000000000001 59.07000000000001 0 0 0
1101 2 26.850000000000005 48.330000000000005 57.28000000000001 0 0 0
1102 2 25.060000000000006 46.54000000000001 60.86000000000001 0 0 0
1105 1 26.850000000000005 48.330000000000005 60.86000000000001 0 0 0
1123 3 25.060000000000006 51.91000000000001 44.75000000000001 0 0 0
1124 2 26.850000000000005 50.12000000000001 44.75000000000001 0 0 0
1125 1 26.850000000000005 51.91000000000001 42.96 0 0 0
1126 1 25.060000000000006 50.12000000000001 46.54000000000001 0 0 0
1127 1 25.060000000000006 51.91000000000001 48.330000000000005 0 0 0
1128 2 26.850000000000005 50.12000000000001 48.330000000000005 0 0 0
1129 3 26.850000000000005 51.91000000000001 46.54000000000001 0 0 0
1130 3 25.060000000000006 50.12000000000001 50.12000000000001 0 0 0
1131 1 25.060000000000006 51.91000000000001 51.91000000000001 0 0 0
1132 3 26.850000000000005 50.12000000000001 51.91000000000001 0 0 0
1133 1 26.850000000000005 51.91000000000001 50.12000000000001 0 0 0
1134 1 25.060000000000006 50.12000000000001 53.70000000000001 0 0 0
1135 1 25.060000000000006 51.91000000000001 55.49000000000001 0 0 0
1136 3 26.850000000000005 50.12000000000001 55.49000000000001 0 0 0
1137 3 26.850000000000005 51.91000000000001 53.70000000000001 0 0 0
1138 1 25.060000000000006 50.12000000000001 57.28000000000001 0 0 0
1139 2 25.060000000000006 51.91000000000001 59.07000000000001 0 0 0
1140 1 26.850000000000005 50.12000000000001 59.07000000000001 0 0 0
1141 2 26.850000000000005 51.91000000000001 57.28000000000001 0 0 0
1142 3 25.060000000000006 50.12000000000001 60.86000000000001 0 0 0
1145 1 26.850000000000005 51.91000000000001 60.86000000000001 0 0 0
1163 1 25.060000000000006 55.49000000000001 41.17000000000001 0 0 0
1164 1 26.850000000000005 53.70000000000001 41.17000000000001 0 0 0
1165 3 26.850000000000005 55.49000000000001 39.38000000000001 0 0 0
1166 1 25.060000000000006 53.70000000000001 42.96 0 0 0
1167 1 25.060000000000006 55.49000000000001 44.75000000000001 0 0 0
1168 1 26.850000000000005 53.70000000000001 44.75000000000001 0 0 0
1169 2 26.850000000000005 55.49000000000001 42.96 0 0 0
1170 2 25.060000000000006 53.70000000000001 46.54000000000001 0 0 0
1171 1 25.060000000000006 55.49000000000001 48.330000000000005 0 0 0
1172 3 26.850000000000005 53.70000000000001 48.330000000000005 0 0 0
1173 1 26.850000000000005 55.49000000000001 46.54000000000001 0 0 0
1174 2 25.060000000000006 53.70000000000001 50.12000000000001 0 0 0
1175 3 25.060000000000006 55.49000000000001 51.91000000000001 0 0 0
1176 3 26.850000000000005 53.70000000000001 51.91000000000001 0 0 0
1177 3 26.850000000000005 55.49000000000001 50.12000000000001 0 0 0
1178 1 25.060000000000006 53.70000000000001 53.70000000000001 0 0 0
1179 1 25.060000000000006 55.49000000000001 55.49000000000001 0 0 0
1180 2 26.850000000000005 53.70000000000001 55.49000000000001 0 0 0
1181 1 26.850000000000005 55.49000000000001 53.70000000000001 0 0 0
1182 1 25.060000000000006 53.70000000000001 57.28000000000001 0 0 0
1183 2 25.060000000000006 55.49000000000001 59.07000000000001 0 0 0
1184 1 26.850000000000005 53.70000000000001 59.07000000000001 0 0 0
1185 1 26.850000000000005 55.49000000000001 57.28000000000001 0 0 0
1186 3 25.060000000000006 53.70000000000001 60.86000000000001 0 0 0
1189 2 26.850000000000005 55.49000000000001 60.86000000000001 0 0 0
1211 1 25.060000000000006 59.07000000000001 37.59 0 0 0
1212 1 26.850000000000005 57.28000000000001 37.59 0 0 0
1213 2 26.850000000000005 59.07000000000001 35.80000000000001 0 0 0
1214 1 25.060000000000006 57.28000000000001 39.38000000000001 0 0 0
1215 1 25.060000000000006 59.07000000000001 41.17000000000001 0 0 0
1216 1 26.850000000000005 57.28000000000001 41.17000000000001 0 0 0
1217 2 26.850000000000005 59.07000000000001 39.38000000000001 0 0 0
1218 2 25.060000000000006 57.28000000000001 42.96 0 0 0
1219 3 25.060000000000006 59.07000000000001 44.75000000000001 0 0 0
1220 1 26.850000000000005 57.28000000000001 44.75000000000001 0 0 0
1221 3 26.850000000000005 59.07000000000001 42.96 0 0 0
1222 1 25.060000000000006 57.28000000000001 46.54000000000001 0 0 0
1223 1 25.060000000000006 59.07000000000001 48.330000000000005 0 0 0
1224 1 26.850000000000005 57.28000000000001 48.330000000000005 0 0 0
1225 1 26.850000000000005 59.07000000000001 46.54000000000001 0 0 0
1226 2 25.060000000000006 57.28000000000001 50.12000000000001 0 0 0
1227 1 25.060000000000006 59.07000000000001 51.91000000000001 0 0 0
1228 2 26.850000000000005 57.28000000000001 51.91000000000001 0 0 0
1229 1 26.850000000000005 59.07000000000001 50.12000000000001 0 0 0
1230 1 25.060000000000006 57.28000000000001 53.70000000000001 0 0 0
1231 1 25.060000000000006 59.07000000000001 55.49000000000001 0 0 0
1232 2 26.850000000000005 57.28000000000001 55.49000000000001 0 0 0
1233 2 26.850000000000005 59.07000000000001 53.70000000000001 0 0 0
1234 2 25.060000000000006 57.28000000000001 57.28000000000001 0 0 0
1235 3 25.060000000000006 59.07000000000001 59.07000000000001 0 0 0
1236 1 26.850000000000005 57.28000000000001 59.07000000000001 0 0 0
1237 1 26.850000000000005 59.07000000000001 57.28000000000001 0 0 0
1238 1 25.060000000000006 57.28000000000001 60.86000000000001 0 0 0
1241 2 26.850000000000005 59.07000000000001 60.86000000000001 0 0 0
1267 2 26.850000000000005 60.86000000000001 34.01 0 0 0
1268 1 25.060000000000006 60.86000000000001 35.80000000000001 0 0 0
1270 3 26.850000000000005 60.86000000000001 37.59 0 0 0
1272 1 25.060000000000006 60.86000000000001 39.38000000000001 0 0 0
1274 1 26.850000000000005 60.86000000000001 41.17000000000001 0 0 0
1276 1 25.060000000000006 60.86000000000001 42.96 0 0 0
1278 2 26.850000000000005 60.86000000000001 44.75000000000001 0 0 0
1280 1 25.060000000000006 60.86000000000001 46.54000000000001 0 0 0
1282 1 26.850000000000005 60.86000000000001 48.330000000000005 0 0 0
1284 3 25.060000000000006 60.86000000000001 50.12000000000001 0 0 0
1286 1 26.850000000000005 60.86000000000001 51.91000000000001 0 0 0
1288 1 25.060000000000006 60.86000000000001 53.70000000000001 0 0 0
1290 3 26.850000000000005 60.86000000000001 55.49000000000001 0 0 0
1292 3 25.060000000000006 60.86000000000001 57.28000000000001 0 0 0
1294 1 26.850000000000005 60.86000000000001 59.07000000000001 0 0 0
1296 1 25.060000000000006 60.86000000000001 60.86000000000001 0 0 0
1537 1 30.430000000000003 30.430000000000003 60.86000000000001 0 0 0
1538 1 28.640000000000004 34.01 59.07000000000001 0 0 0