model_files/PtCo/PtCo_30000/PtCo_553/PtCo_553_fcc_29881_temp.data (written by ASE) 

29881 	 atoms 
2  atom types
0.0                     116  xlo xhi
0.0                     116  ylo yhi
0.0                     116  zlo zhi


Atoms 

     1   1  7.1054273576010019e-15       56.57500000000001       56.57500000000001
     2   1      1.8250000000000102      54.750000000000007       56.57500000000001
     3   1      1.8250000000000102       56.57500000000001      54.750000000000007
     4   1  7.1054273576010019e-15       56.57500000000001      60.225000000000001
     5   1      1.8250000000000102      54.750000000000007      60.225000000000001
     6   1      1.8250000000000102       56.57500000000001      58.399999999999999
     7   1      1.8250000000000102       56.57500000000001      62.050000000000004
     8   1  7.1054273576010019e-15      60.225000000000001       56.57500000000001
     9   1      1.8250000000000102      58.399999999999999       56.57500000000001
    10   1      1.8250000000000102      60.225000000000001      54.750000000000007
    11   1  7.1054273576010019e-15      58.399999999999999      58.399999999999999
    12   1  7.1054273576010019e-15      60.225000000000001      60.225000000000001
    13   1      1.8250000000000102      58.399999999999999      60.225000000000001
    14   1      1.8250000000000102      60.225000000000001      58.399999999999999
    15   1      1.8250000000000102      60.225000000000001      62.050000000000004
    16   1      1.8250000000000102      62.050000000000004       56.57500000000001
    17   1      1.8250000000000102      62.050000000000004      60.225000000000001
    18   1      3.6500000000000057      52.925000000000011       56.57500000000001
    19   1      5.4750000000000085      51.100000000000009       56.57500000000001
    20   1      5.4750000000000085      52.925000000000011      54.750000000000007
    21   1      3.6500000000000057      52.925000000000011      60.225000000000001
    22   1      5.4750000000000085      51.100000000000009      60.225000000000001
    23   1      5.4750000000000085      52.925000000000011      58.399999999999999
    24   1      5.4750000000000085      52.925000000000011      62.050000000000004
    25   1      3.6500000000000057       56.57500000000001      52.925000000000011
    26   1      5.4750000000000085      54.750000000000007      52.925000000000011
    27   1      5.4750000000000085       56.57500000000001      51.100000000000009
    28   1      3.6500000000000057      54.750000000000007      54.750000000000007
    29   1      3.6500000000000057       56.57500000000001       56.57500000000001
    30   1      5.4750000000000085      54.750000000000007       56.57500000000001
    31   1      5.4750000000000085       56.57500000000001      54.750000000000007
    32   1      3.6500000000000057      54.750000000000007      58.399999999999999
    33   1      3.6500000000000057       56.57500000000001      60.225000000000001
    34   1      5.4750000000000085      54.750000000000007      60.225000000000001
    35   1      5.4750000000000085       56.57500000000001      58.399999999999999
    36   1      3.6500000000000057      54.750000000000007      62.050000000000004
    37   1      3.6500000000000057       56.57500000000001      63.875000000000007
    38   1      5.4750000000000085      54.750000000000007      63.875000000000007
    39   1      5.4750000000000085       56.57500000000001      62.050000000000004
    40   1      5.4750000000000085       56.57500000000001      65.700000000000003
    41   1      3.6500000000000057      60.225000000000001      52.925000000000011
    42   1      5.4750000000000085      58.399999999999999      52.925000000000011
    43   1      5.4750000000000085      60.225000000000001      51.100000000000009
    44   1      3.6500000000000057      58.399999999999999      54.750000000000007
    45   1      3.6500000000000057      60.225000000000001       56.57500000000001
    46   1      5.4750000000000085      58.399999999999999       56.57500000000001
    47   1      5.4750000000000085      60.225000000000001      54.750000000000007
    48   1      3.6500000000000057      58.399999999999999      58.399999999999999
    49   1      3.6500000000000057      60.225000000000001      60.225000000000001
    50   1      5.4750000000000085      58.399999999999999      60.225000000000001
    51   1      5.4750000000000085      60.225000000000001      58.399999999999999
    52   1      3.6500000000000057      58.399999999999999      62.050000000000004
    53   1      3.6500000000000057      60.225000000000001      63.875000000000007
    54   1      5.4750000000000085      58.399999999999999      63.875000000000007
    55   1      5.4750000000000085      60.225000000000001      62.050000000000004
    56   1      5.4750000000000085      60.225000000000001      65.700000000000003
    57   1      5.4750000000000085      62.050000000000004      52.925000000000011
    58   1      3.6500000000000057      62.050000000000004      54.750000000000007
    59   1      3.6500000000000057      63.875000000000007       56.57500000000001
    60   1      5.4750000000000085      62.050000000000004       56.57500000000001
    61   1      5.4750000000000085      63.875000000000007      54.750000000000007
    62   1      3.6500000000000057      62.050000000000004      58.399999999999999
    63   1      3.6500000000000057      63.875000000000007      60.225000000000001
    64   1      5.4750000000000085      62.050000000000004      60.225000000000001
    65   1      5.4750000000000085      63.875000000000007      58.399999999999999
    66   1      3.6500000000000057      62.050000000000004      62.050000000000004
    67   1      5.4750000000000085      62.050000000000004      63.875000000000007
    68   1      5.4750000000000085      63.875000000000007      62.050000000000004
    69   1      5.4750000000000085      65.700000000000003       56.57500000000001
    70   1      5.4750000000000085      65.700000000000003      60.225000000000001
    71   1      7.3000000000000114      49.275000000000013       56.57500000000001
    72   1      9.1250000000000071       47.45000000000001       56.57500000000001
    73   1      9.1250000000000071      49.275000000000013      54.750000000000007
    74   1      7.3000000000000114      49.275000000000013      60.225000000000001
    75   1      9.1250000000000071       47.45000000000001      60.225000000000001
    76   1      9.1250000000000071      49.275000000000013      58.399999999999999
    77   1      9.1250000000000071      49.275000000000013      62.050000000000004
    78   1      7.3000000000000114      52.925000000000011      52.925000000000011
    79   1      9.1250000000000071      51.100000000000009      52.925000000000011
    80   1      9.1250000000000071      52.925000000000011      51.100000000000009
    81   1      7.3000000000000114      51.100000000000009      54.750000000000007
    82   1      7.3000000000000114      52.925000000000011       56.57500000000001
    83   1      9.1250000000000071      51.100000000000009       56.57500000000001
    84   1      9.1250000000000071      52.925000000000011      54.750000000000007
    85   1      7.3000000000000114      51.100000000000009      58.399999999999999
    86   1      7.3000000000000114      52.925000000000011      60.225000000000001
    87   1      9.1250000000000071      51.100000000000009      60.225000000000001
    88   1      9.1250000000000071      52.925000000000011      58.399999999999999
    89   1      7.3000000000000114      51.100000000000009      62.050000000000004
    90   1      7.3000000000000114      52.925000000000011      63.875000000000007
    91   1      9.1250000000000071      51.100000000000009      63.875000000000007
    92   1      9.1250000000000071      52.925000000000011      62.050000000000004
    93   1      9.1250000000000071      52.925000000000011      65.700000000000003
    94   1      7.3000000000000114       56.57500000000001      49.275000000000013
    95   1      9.1250000000000071      54.750000000000007      49.275000000000013
    96   1      9.1250000000000071       56.57500000000001       47.45000000000001
    97   1      7.3000000000000114      54.750000000000007      51.100000000000009
    98   1      7.3000000000000114       56.57500000000001      52.925000000000011
    99   1      9.1250000000000071      54.750000000000007      52.925000000000011
   100   1      9.1250000000000071       56.57500000000001      51.100000000000009
   101   1      7.3000000000000114      54.750000000000007      54.750000000000007
   102   1      7.3000000000000114       56.57500000000001       56.57500000000001
   103   1      9.1250000000000071      54.750000000000007       56.57500000000001
   104   1      9.1250000000000071       56.57500000000001      54.750000000000007
   105   1      7.3000000000000114      54.750000000000007      58.399999999999999
   106   1      7.3000000000000114       56.57500000000001      60.225000000000001
   107   1      9.1250000000000071      54.750000000000007      60.225000000000001
   108   1      9.1250000000000071       56.57500000000001      58.399999999999999
   109   1      7.3000000000000114      54.750000000000007      62.050000000000004
   110   1      7.3000000000000114       56.57500000000001      63.875000000000007
   111   1      9.1250000000000071      54.750000000000007      63.875000000000007
   112   1      9.1250000000000071       56.57500000000001      62.050000000000004
   113   1      7.3000000000000114      54.750000000000007      65.700000000000003
   114   1      7.3000000000000114       56.57500000000001      67.525000000000006
   115   1      9.1250000000000071      54.750000000000007      67.525000000000006
   116   1      9.1250000000000071       56.57500000000001      65.700000000000003
   117   1      9.1250000000000071       56.57500000000001      69.350000000000009
   118   1      7.3000000000000114      60.225000000000001      49.275000000000013
   119   1      9.1250000000000071      58.399999999999999      49.275000000000013
   120   1      9.1250000000000071      60.225000000000001       47.45000000000001
   121   1      7.3000000000000114      58.399999999999999      51.100000000000009
   122   1      7.3000000000000114      60.225000000000001      52.925000000000011
   123   1      9.1250000000000071      58.399999999999999      52.925000000000011
   124   1      9.1250000000000071      60.225000000000001      51.100000000000009
   125   1      7.3000000000000114      58.399999999999999      54.750000000000007
   126   1      7.3000000000000114      60.225000000000001       56.57500000000001
   127   1      9.1250000000000071      58.399999999999999       56.57500000000001
   128   1      9.1250000000000071      60.225000000000001      54.750000000000007
   129   1      7.3000000000000114      58.399999999999999      58.399999999999999
   130   1      7.3000000000000114      60.225000000000001      60.225000000000001
   131   1      9.1250000000000071      58.399999999999999      60.225000000000001
   132   1      9.1250000000000071      60.225000000000001      58.399999999999999
   133   1      7.3000000000000114      58.399999999999999      62.050000000000004
   134   1      7.3000000000000114      60.225000000000001      63.875000000000007
   135   1      9.1250000000000071      58.399999999999999      63.875000000000007
   136   1      9.1250000000000071      60.225000000000001      62.050000000000004
   137   1      7.3000000000000114      58.399999999999999      65.700000000000003
   138   1      7.3000000000000114      60.225000000000001      67.525000000000006
   139   1      9.1250000000000071      58.399999999999999      67.525000000000006
   140   1      9.1250000000000071      60.225000000000001      65.700000000000003
   141   1      9.1250000000000071      60.225000000000001      69.350000000000009
   142   1      9.1250000000000071      62.050000000000004      49.275000000000013
   143   1      7.3000000000000114      62.050000000000004      51.100000000000009
   144   1      7.3000000000000114      63.875000000000007      52.925000000000011
   145   1      9.1250000000000071      62.050000000000004      52.925000000000011
   146   1      9.1250000000000071      63.875000000000007      51.100000000000009
   147   1      7.3000000000000114      62.050000000000004      54.750000000000007
   148   1      7.3000000000000114      63.875000000000007       56.57500000000001
   149   1      9.1250000000000071      62.050000000000004       56.57500000000001
   150   1      9.1250000000000071      63.875000000000007      54.750000000000007
   151   1      7.3000000000000114      62.050000000000004      58.399999999999999
   152   1      7.3000000000000114      63.875000000000007      60.225000000000001
   153   1      9.1250000000000071      62.050000000000004      60.225000000000001
   154   1      9.1250000000000071      63.875000000000007      58.399999999999999
   155   1      7.3000000000000114      62.050000000000004      62.050000000000004
   156   1      7.3000000000000114      63.875000000000007      63.875000000000007
   157   1      9.1250000000000071      62.050000000000004      63.875000000000007
   158   1      9.1250000000000071      63.875000000000007      62.050000000000004
   159   1      7.3000000000000114      62.050000000000004      65.700000000000003
   160   1      9.1250000000000071      62.050000000000004      67.525000000000006
   161   1      9.1250000000000071      63.875000000000007      65.700000000000003
   162   1      9.1250000000000071      65.700000000000003      52.925000000000011
   163   1      7.3000000000000114      65.700000000000003      54.750000000000007
   164   1      7.3000000000000114      67.525000000000006       56.57500000000001
   165   1      9.1250000000000071      65.700000000000003       56.57500000000001
   166   1      9.1250000000000071      67.525000000000006      54.750000000000007
   167   1      7.3000000000000114      65.700000000000003      58.399999999999999
   168   1      7.3000000000000114      67.525000000000006      60.225000000000001
   169   1      9.1250000000000071      65.700000000000003      60.225000000000001
   170   1      9.1250000000000071      67.525000000000006      58.399999999999999
   171   1      7.3000000000000114      65.700000000000003      62.050000000000004
   172   1      9.1250000000000071      65.700000000000003      63.875000000000007
   173   1      9.1250000000000071      67.525000000000006      62.050000000000004
   174   1      9.1250000000000071      69.350000000000009       56.57500000000001
   175   1      9.1250000000000071      69.350000000000009      60.225000000000001
   176   1      10.950000000000008      45.625000000000007       56.57500000000001
   177   1      12.775000000000006      43.800000000000004       56.57500000000001
   178   1      12.775000000000006      45.625000000000007      54.750000000000007
   179   1      10.950000000000008      45.625000000000007      60.225000000000001
   180   1      12.775000000000006      43.800000000000004      60.225000000000001
   181   1      12.775000000000006      45.625000000000007      58.399999999999999
   182   1      12.775000000000006      45.625000000000007      62.050000000000004
   183   1      10.950000000000008      49.275000000000013      52.925000000000011
   184   1      12.775000000000006       47.45000000000001      52.925000000000011
   185   1      12.775000000000006      49.275000000000013      51.100000000000009
   186   1      10.950000000000008       47.45000000000001      54.750000000000007
   187   1      10.950000000000008      49.275000000000013       56.57500000000001
   188   1      12.775000000000006       47.45000000000001       56.57500000000001
   189   1      12.775000000000006      49.275000000000013      54.750000000000007
   190   1      10.950000000000008       47.45000000000001      58.399999999999999
   191   1      10.950000000000008      49.275000000000013      60.225000000000001
   192   1      12.775000000000006       47.45000000000001      60.225000000000001
   193   1      12.775000000000006      49.275000000000013      58.399999999999999
   194   1      10.950000000000008       47.45000000000001      62.050000000000004
   195   1      10.950000000000008      49.275000000000013      63.875000000000007
   196   1      12.775000000000006       47.45000000000001      63.875000000000007
   197   1      12.775000000000006      49.275000000000013      62.050000000000004
   198   1      12.775000000000006      49.275000000000013      65.700000000000003
   199   1      10.950000000000008      52.925000000000011      49.275000000000013
   200   1      12.775000000000006      51.100000000000009      49.275000000000013
   201   1      12.775000000000006      52.925000000000011       47.45000000000001
   202   1      10.950000000000008      51.100000000000009      51.100000000000009
   203   1      10.950000000000008      52.925000000000011      52.925000000000011
   204   1      12.775000000000006      51.100000000000009      52.925000000000011
   205   1      12.775000000000006      52.925000000000011      51.100000000000009
   206   1      10.950000000000008      51.100000000000009      54.750000000000007
   207   1      10.950000000000008      52.925000000000011       56.57500000000001
   208   1      12.775000000000006      51.100000000000009       56.57500000000001
   209   1      12.775000000000006      52.925000000000011      54.750000000000007
   210   1      10.950000000000008      51.100000000000009      58.399999999999999
   211   1      10.950000000000008      52.925000000000011      60.225000000000001
   212   1      12.775000000000006      51.100000000000009      60.225000000000001
   213   1      12.775000000000006      52.925000000000011      58.399999999999999
   214   1      10.950000000000008      51.100000000000009      62.050000000000004
   215   1      10.950000000000008      52.925000000000011      63.875000000000007
   216   1      12.775000000000006      51.100000000000009      63.875000000000007
   217   1      12.775000000000006      52.925000000000011      62.050000000000004
   218   1      10.950000000000008      51.100000000000009      65.700000000000003
   219   1      10.950000000000008      52.925000000000011      67.525000000000006
   220   1      12.775000000000006      51.100000000000009      67.525000000000006
   221   1      12.775000000000006      52.925000000000011      65.700000000000003
   222   1      12.775000000000006      52.925000000000011      69.350000000000009
   223   1      10.950000000000008       56.57500000000001      45.625000000000007
   224   1      12.775000000000006      54.750000000000007      45.625000000000007
   225   1      12.775000000000006       56.57500000000001      43.800000000000004
   226   1      10.950000000000008      54.750000000000007       47.45000000000001
   227   1      10.950000000000008       56.57500000000001      49.275000000000013
   228   1      12.775000000000006      54.750000000000007      49.275000000000013
   229   1      12.775000000000006       56.57500000000001       47.45000000000001
   230   1      10.950000000000008      54.750000000000007      51.100000000000009
   231   1      10.950000000000008       56.57500000000001      52.925000000000011
   232   1      12.775000000000006      54.750000000000007      52.925000000000011
   233   1      12.775000000000006       56.57500000000001      51.100000000000009
   234   1      10.950000000000008      54.750000000000007      54.750000000000007
   235   1      10.950000000000008       56.57500000000001       56.57500000000001
   236   1      12.775000000000006      54.750000000000007       56.57500000000001
   237   1      12.775000000000006       56.57500000000001      54.750000000000007
   238   1      10.950000000000008      54.750000000000007      58.399999999999999
   239   1      10.950000000000008       56.57500000000001      60.225000000000001
   240   1      12.775000000000006      54.750000000000007      60.225000000000001
   241   1      12.775000000000006       56.57500000000001      58.399999999999999
   242   1      10.950000000000008      54.750000000000007      62.050000000000004
   243   1      10.950000000000008       56.57500000000001      63.875000000000007
   244   1      12.775000000000006      54.750000000000007      63.875000000000007
   245   1      12.775000000000006       56.57500000000001      62.050000000000004
   246   1      10.950000000000008      54.750000000000007      65.700000000000003
   247   1      10.950000000000008       56.57500000000001      67.525000000000006
   248   1      12.775000000000006      54.750000000000007      67.525000000000006
   249   1      12.775000000000006       56.57500000000001      65.700000000000003
   250   1      10.950000000000008      54.750000000000007      69.350000000000009
   251   1      10.950000000000008       56.57500000000001      71.175000000000011
   252   1      12.775000000000006      54.750000000000007      71.175000000000011
   253   1      12.775000000000006       56.57500000000001      69.350000000000009
   254   1      12.775000000000006       56.57500000000001                      73
   255   1      10.950000000000008      60.225000000000001      45.625000000000007
   256   1      12.775000000000006      58.399999999999999      45.625000000000007
   257   1      12.775000000000006      60.225000000000001      43.800000000000004
   258   1      10.950000000000008      58.399999999999999       47.45000000000001
   259   1      10.950000000000008      60.225000000000001      49.275000000000013
   260   1      12.775000000000006      58.399999999999999      49.275000000000013
   261   1      12.775000000000006      60.225000000000001       47.45000000000001
   262   1      10.950000000000008      58.399999999999999      51.100000000000009
   263   1      10.950000000000008      60.225000000000001      52.925000000000011
   264   1      12.775000000000006      58.399999999999999      52.925000000000011
   265   1      12.775000000000006      60.225000000000001      51.100000000000009
   266   1      10.950000000000008      58.399999999999999      54.750000000000007
   267   1      10.950000000000008      60.225000000000001       56.57500000000001
   268   1      12.775000000000006      58.399999999999999       56.57500000000001
   269   1      12.775000000000006      60.225000000000001      54.750000000000007
   270   1      10.950000000000008      58.399999999999999      58.399999999999999
   271   1      10.950000000000008      60.225000000000001      60.225000000000001
   272   1      12.775000000000006      58.399999999999999      60.225000000000001
   273   1      12.775000000000006      60.225000000000001      58.399999999999999
   274   1      10.950000000000008      58.399999999999999      62.050000000000004
   275   1      10.950000000000008      60.225000000000001      63.875000000000007
   276   1      12.775000000000006      58.399999999999999      63.875000000000007
   277   1      12.775000000000006      60.225000000000001      62.050000000000004
   278   1      10.950000000000008      58.399999999999999      65.700000000000003
   279   1      10.950000000000008      60.225000000000001      67.525000000000006
   280   1      12.775000000000006      58.399999999999999      67.525000000000006
   281   1      12.775000000000006      60.225000000000001      65.700000000000003
   282   1      10.950000000000008      58.399999999999999      69.350000000000009
   283   1      10.950000000000008      60.225000000000001      71.175000000000011
   284   1      12.775000000000006      58.399999999999999      71.175000000000011
   285   1      12.775000000000006      60.225000000000001      69.350000000000009
   286   1      12.775000000000006      60.225000000000001                      73
   287   1      12.775000000000006      62.050000000000004      45.625000000000007
   288   1      10.950000000000008      62.050000000000004       47.45000000000001
   289   1      10.950000000000008      63.875000000000007      49.275000000000013
   290   1      12.775000000000006      62.050000000000004      49.275000000000013
   291   1      12.775000000000006      63.875000000000007       47.45000000000001
   292   1      10.950000000000008      62.050000000000004      51.100000000000009
   293   1      10.950000000000008      63.875000000000007      52.925000000000011
   294   1      12.775000000000006      62.050000000000004      52.925000000000011
   295   1      12.775000000000006      63.875000000000007      51.100000000000009
   296   1      10.950000000000008      62.050000000000004      54.750000000000007
   297   1      10.950000000000008      63.875000000000007       56.57500000000001
   298   1      12.775000000000006      62.050000000000004       56.57500000000001
   299   1      12.775000000000006      63.875000000000007      54.750000000000007
   300   1      10.950000000000008      62.050000000000004      58.399999999999999
   301   1      10.950000000000008      63.875000000000007      60.225000000000001
   302   1      12.775000000000006      62.050000000000004      60.225000000000001
   303   1      12.775000000000006      63.875000000000007      58.399999999999999
   304   1      10.950000000000008      62.050000000000004      62.050000000000004
   305   1      10.950000000000008      63.875000000000007      63.875000000000007
   306   1      12.775000000000006      62.050000000000004      63.875000000000007
   307   1      12.775000000000006      63.875000000000007      62.050000000000004
   308   1      10.950000000000008      62.050000000000004      65.700000000000003
   309   1      10.950000000000008      63.875000000000007      67.525000000000006
   310   1      12.775000000000006      62.050000000000004      67.525000000000006
   311   1      12.775000000000006      63.875000000000007      65.700000000000003
   312   1      10.950000000000008      62.050000000000004      69.350000000000009
   313   1      12.775000000000006      62.050000000000004      71.175000000000011
   314   1      12.775000000000006      63.875000000000007      69.350000000000009
   315   1      12.775000000000006      65.700000000000003      49.275000000000013
   316   1      10.950000000000008      65.700000000000003      51.100000000000009
   317   1      10.950000000000008      67.525000000000006      52.925000000000011
   318   1      12.775000000000006      65.700000000000003      52.925000000000011
   319   1      12.775000000000006      67.525000000000006      51.100000000000009
   320   1      10.950000000000008      65.700000000000003      54.750000000000007
   321   1      10.950000000000008      67.525000000000006       56.57500000000001
   322   1      12.775000000000006      65.700000000000003       56.57500000000001
   323   1      12.775000000000006      67.525000000000006      54.750000000000007
   324   1      10.950000000000008      65.700000000000003      58.399999999999999
   325   1      10.950000000000008      67.525000000000006      60.225000000000001
   326   1      12.775000000000006      65.700000000000003      60.225000000000001
   327   1      12.775000000000006      67.525000000000006      58.399999999999999
   328   1      10.950000000000008      65.700000000000003      62.050000000000004
   329   1      10.950000000000008      67.525000000000006      63.875000000000007
   330   1      12.775000000000006      65.700000000000003      63.875000000000007
   331   1      12.775000000000006      67.525000000000006      62.050000000000004
   332   1      10.950000000000008      65.700000000000003      65.700000000000003
   333   1      12.775000000000006      65.700000000000003      67.525000000000006
   334   1      12.775000000000006      67.525000000000006      65.700000000000003
   335   1      12.775000000000006      69.350000000000009      52.925000000000011
   336   1      10.950000000000008      69.350000000000009      54.750000000000007
   337   1      10.950000000000008      71.175000000000011       56.57500000000001
   338   1      12.775000000000006      69.350000000000009       56.57500000000001
   339   1      12.775000000000006      71.175000000000011      54.750000000000007
   340   1      10.950000000000008      69.350000000000009      58.399999999999999
   341   1      10.950000000000008      71.175000000000011      60.225000000000001
   342   1      12.775000000000006      69.350000000000009      60.225000000000001
   343   1      12.775000000000006      71.175000000000011      58.399999999999999
   344   1      10.950000000000008      69.350000000000009      62.050000000000004
   345   1      12.775000000000006      69.350000000000009      63.875000000000007
   346   1      12.775000000000006      71.175000000000011      62.050000000000004
   347   1      12.775000000000006                      73       56.57500000000001
   348   1      12.775000000000006                      73      60.225000000000001
   349   1       14.60000000000001      41.975000000000009       56.57500000000001
   350   1      16.425000000000011      40.150000000000006       56.57500000000001
   351   1      16.425000000000011      41.975000000000009      54.750000000000007
   352   1       14.60000000000001      41.975000000000009      60.225000000000001
   353   1      16.425000000000011      40.150000000000006      60.225000000000001
   354   1      16.425000000000011      41.975000000000009      58.399999999999999
   355   1      16.425000000000011      41.975000000000009      62.050000000000004
   356   1      16.425000000000011      45.625000000000007       47.45000000000001
   357   1       14.60000000000001      45.625000000000007      52.925000000000011
   358   1      16.425000000000011      43.800000000000004      52.925000000000011