model_files/Co/Co_30000/Co_320/data.Co_320_hcp_29879 (written by ASE) 

29879 	 atoms 
1  atom types
0.0                      67  xlo xhi
0.0                      67  ylo yhi
0.0                      67  zlo zhi


Atoms 

     1   1      1.2549999999999952      28.864999999999991       30.11999999999999
     2   1      1.2549999999999952      28.864999999999991      32.629999999999995
     3   1      1.2549999999999952      28.864999999999991      35.139999999999993
     4   1      1.2549999999999952       30.11999999999999      28.864999999999991
     5   1      66.999999999999986       30.11999999999999       30.11999999999999
     6   1      66.999999999999986      31.374999999999993      31.374999999999993
     7   1      1.2549999999999952       30.11999999999999      31.374999999999993
     8   1      1.2549999999999952      31.374999999999993       30.11999999999999
     9   1      66.999999999999986       30.11999999999999      32.629999999999995
    10   1      66.999999999999986      31.374999999999993      33.884999999999998
    11   1      1.2549999999999952       30.11999999999999      33.884999999999998
    12   1      1.2549999999999952      31.374999999999993      32.629999999999995
    13   1      66.999999999999986       30.11999999999999      35.139999999999993
    14   1      1.2549999999999952       30.11999999999999      36.394999999999996
    15   1      1.2549999999999952      31.374999999999993      35.139999999999993
    16   1      1.2549999999999952      32.629999999999995      28.864999999999991
    17   1      66.999999999999986      32.629999999999995       30.11999999999999
    18   1      66.999999999999986      33.884999999999998      31.374999999999993
    19   1      1.2549999999999952      32.629999999999995      31.374999999999993
    20   1      1.2549999999999952      33.884999999999998       30.11999999999999
    21   1      66.999999999999986      32.629999999999995      32.629999999999995
    22   1      66.999999999999986      33.884999999999998      33.884999999999998
    23   1      1.2549999999999952      32.629999999999995      33.884999999999998
    24   1      1.2549999999999952      33.884999999999998      32.629999999999995
    25   1      66.999999999999986      32.629999999999995      35.139999999999993
    26   1      1.2549999999999952      32.629999999999995      36.394999999999996
    27   1      1.2549999999999952      33.884999999999998      35.139999999999993
    28   1      1.2549999999999952      35.139999999999993      28.864999999999991
    29   1      66.999999999999986      35.139999999999993       30.11999999999999
    30   1      1.2549999999999952      35.139999999999993      31.374999999999993
    31   1      1.2549999999999952      36.394999999999996       30.11999999999999
    32   1      66.999999999999986      35.139999999999993      32.629999999999995
    33   1      1.2549999999999952      35.139999999999993      33.884999999999998
    34   1      1.2549999999999952      36.394999999999996      32.629999999999995
    35   1      66.999999999999986      35.139999999999993      35.139999999999993
    36   1      1.2549999999999952      35.139999999999993      36.394999999999996
    37   1      1.2549999999999952      36.394999999999996      35.139999999999993
    38   1      2.5099999999999945      26.354999999999993      26.354999999999993
    39   1       3.764999999999993      25.099999999999994      26.354999999999993
    40   1       3.764999999999993      26.354999999999993      25.099999999999994
    41   1      2.5099999999999945      26.354999999999993      28.864999999999991
    42   1       3.764999999999993      25.099999999999994      28.864999999999991
    43   1       3.764999999999993      26.354999999999993      27.609999999999992
    44   1      2.5099999999999945      26.354999999999993      31.374999999999993
    45   1       3.764999999999993      25.099999999999994      31.374999999999993
    46   1       3.764999999999993      26.354999999999993       30.11999999999999
    47   1      2.5099999999999945      26.354999999999993      33.884999999999998
    48   1       3.764999999999993      25.099999999999994      33.884999999999998
    49   1       3.764999999999993      26.354999999999993      32.629999999999995
    50   1      2.5099999999999945      26.354999999999993      36.394999999999996
    51   1       3.764999999999993      25.099999999999994      36.394999999999996
    52   1       3.764999999999993      26.354999999999993      35.139999999999993
    53   1      2.5099999999999945      26.354999999999993      38.904999999999994
    54   1       3.764999999999993      25.099999999999994      38.904999999999994
    55   1       3.764999999999993      26.354999999999993      37.649999999999991
    56   1       3.764999999999993      26.354999999999993      40.159999999999989
    57   1      2.5099999999999945      28.864999999999991      26.354999999999993
    58   1       3.764999999999993      27.609999999999992      26.354999999999993
    59   1       3.764999999999993      28.864999999999991      25.099999999999994
    60   1      2.5099999999999945      27.609999999999992      27.609999999999992
    61   1      2.5099999999999945      28.864999999999991      28.864999999999991
    62   1       3.764999999999993      27.609999999999992      28.864999999999991
    63   1       3.764999999999993      28.864999999999991      27.609999999999992
    64   1      2.5099999999999945      27.609999999999992       30.11999999999999
    65   1      2.5099999999999945      28.864999999999991      31.374999999999993
    66   1       3.764999999999993      27.609999999999992      31.374999999999993
    67   1       3.764999999999993      28.864999999999991       30.11999999999999
    68   1      2.5099999999999945      27.609999999999992      32.629999999999995
    69   1      2.5099999999999945      28.864999999999991      33.884999999999998
    70   1       3.764999999999993      27.609999999999992      33.884999999999998
    71   1       3.764999999999993      28.864999999999991      32.629999999999995
    72   1      2.5099999999999945      27.609999999999992      35.139999999999993
    73   1      2.5099999999999945      28.864999999999991      36.394999999999996
    74   1       3.764999999999993      27.609999999999992      36.394999999999996
    75   1       3.764999999999993      28.864999999999991      35.139999999999993
    76   1      2.5099999999999945      27.609999999999992      37.649999999999991
    77   1      2.5099999999999945      28.864999999999991      38.904999999999994
    78   1       3.764999999999993      27.609999999999992      38.904999999999994
    79   1       3.764999999999993      28.864999999999991      37.649999999999991
    80   1       3.764999999999993      28.864999999999991      40.159999999999989
    81   1      2.5099999999999945      31.374999999999993      26.354999999999993
    82   1       3.764999999999993       30.11999999999999      26.354999999999993
    83   1       3.764999999999993      31.374999999999993      25.099999999999994
    84   1      2.5099999999999945       30.11999999999999      27.609999999999992
    85   1      2.5099999999999945      31.374999999999993      28.864999999999991
    86   1       3.764999999999993       30.11999999999999      28.864999999999991
    87   1       3.764999999999993      31.374999999999993      27.609999999999992
    88   1      2.5099999999999945       30.11999999999999       30.11999999999999
    89   1      2.5099999999999945      31.374999999999993      31.374999999999993
    90   1       3.764999999999993       30.11999999999999      31.374999999999993
    91   1       3.764999999999993      31.374999999999993       30.11999999999999
    92   1      2.5099999999999945       30.11999999999999      32.629999999999995
    93   1      2.5099999999999945      31.374999999999993      33.884999999999998
    94   1       3.764999999999993       30.11999999999999      33.884999999999998
    95   1       3.764999999999993      31.374999999999993      32.629999999999995
    96   1      2.5099999999999945       30.11999999999999      35.139999999999993
    97   1      2.5099999999999945      31.374999999999993      36.394999999999996
    98   1       3.764999999999993       30.11999999999999      36.394999999999996
    99   1       3.764999999999993      31.374999999999993      35.139999999999993
   100   1      2.5099999999999945       30.11999999999999      37.649999999999991
   101   1      2.5099999999999945      31.374999999999993      38.904999999999994
   102   1       3.764999999999993       30.11999999999999      38.904999999999994
   103   1       3.764999999999993      31.374999999999993      37.649999999999991
   104   1       3.764999999999993      31.374999999999993      40.159999999999989
   105   1      2.5099999999999945      33.884999999999998      26.354999999999993
   106   1       3.764999999999993      32.629999999999995      26.354999999999993
   107   1       3.764999999999993      33.884999999999998      25.099999999999994
   108   1      2.5099999999999945      32.629999999999995      27.609999999999992
   109   1      2.5099999999999945      33.884999999999998      28.864999999999991
   110   1       3.764999999999993      32.629999999999995      28.864999999999991
   111   1       3.764999999999993      33.884999999999998      27.609999999999992
   112   1      2.5099999999999945      32.629999999999995       30.11999999999999
   113   1      2.5099999999999945      33.884999999999998      31.374999999999993
   114   1       3.764999999999993      32.629999999999995      31.374999999999993
   115   1       3.764999999999993      33.884999999999998       30.11999999999999
   116   1      2.5099999999999945      32.629999999999995      32.629999999999995
   117   1      2.5099999999999945      33.884999999999998      33.884999999999998
   118   1       3.764999999999993      32.629999999999995      33.884999999999998
   119   1       3.764999999999993      33.884999999999998      32.629999999999995
   120   1      2.5099999999999945      32.629999999999995      35.139999999999993
   121   1      2.5099999999999945      33.884999999999998      36.394999999999996
   122   1       3.764999999999993      32.629999999999995      36.394999999999996
   123   1       3.764999999999993      33.884999999999998      35.139999999999993
   124   1      2.5099999999999945      32.629999999999995      37.649999999999991
   125   1      2.5099999999999945      33.884999999999998      38.904999999999994
   126   1       3.764999999999993      32.629999999999995      38.904999999999994
   127   1       3.764999999999993      33.884999999999998      37.649999999999991
   128   1       3.764999999999993      33.884999999999998      40.159999999999989
   129   1      2.5099999999999945      36.394999999999996      26.354999999999993
   130   1       3.764999999999993      35.139999999999993      26.354999999999993
   131   1       3.764999999999993      36.394999999999996      25.099999999999994
   132   1      2.5099999999999945      35.139999999999993      27.609999999999992
   133   1      2.5099999999999945      36.394999999999996      28.864999999999991
   134   1       3.764999999999993      35.139999999999993      28.864999999999991
   135   1       3.764999999999993      36.394999999999996      27.609999999999992
   136   1      2.5099999999999945      35.139999999999993       30.11999999999999
   137   1      2.5099999999999945      36.394999999999996      31.374999999999993
   138   1       3.764999999999993      35.139999999999993      31.374999999999993
   139   1       3.764999999999993      36.394999999999996       30.11999999999999
   140   1      2.5099999999999945      35.139999999999993      32.629999999999995
   141   1      2.5099999999999945      36.394999999999996      33.884999999999998
   142   1       3.764999999999993      35.139999999999993      33.884999999999998
   143   1       3.764999999999993      36.394999999999996      32.629999999999995
   144   1      2.5099999999999945      35.139999999999993      35.139999999999993
   145   1      2.5099999999999945      36.394999999999996      36.394999999999996
   146   1       3.764999999999993      35.139999999999993      36.394999999999996
   147   1       3.764999999999993      36.394999999999996      35.139999999999993
   148   1      2.5099999999999945      35.139999999999993      37.649999999999991
   149   1      2.5099999999999945      36.394999999999996      38.904999999999994
   150   1       3.764999999999993      35.139999999999993      38.904999999999994
   151   1       3.764999999999993      36.394999999999996      37.649999999999991
   152   1       3.764999999999993      36.394999999999996      40.159999999999989
   153   1      2.5099999999999945      38.904999999999994      26.354999999999993
   154   1       3.764999999999993      37.649999999999991      26.354999999999993
   155   1       3.764999999999993      38.904999999999994      25.099999999999994
   156   1      2.5099999999999945      37.649999999999991      27.609999999999992
   157   1      2.5099999999999945      38.904999999999994      28.864999999999991
   158   1       3.764999999999993      37.649999999999991      28.864999999999991
   159   1       3.764999999999993      38.904999999999994      27.609999999999992
   160   1      2.5099999999999945      37.649999999999991       30.11999999999999
   161   1      2.5099999999999945      38.904999999999994      31.374999999999993
   162   1       3.764999999999993      37.649999999999991      31.374999999999993
   163   1       3.764999999999993      38.904999999999994       30.11999999999999
   164   1      2.5099999999999945      37.649999999999991      32.629999999999995
   165   1      2.5099999999999945      38.904999999999994      33.884999999999998
   166   1       3.764999999999993      37.649999999999991      33.884999999999998
   167   1       3.764999999999993      38.904999999999994      32.629999999999995
   168   1      2.5099999999999945      37.649999999999991      35.139999999999993
   169   1      2.5099999999999945      38.904999999999994      36.394999999999996
   170   1       3.764999999999993      37.649999999999991      36.394999999999996
   171   1       3.764999999999993      38.904999999999994      35.139999999999993
   172   1      2.5099999999999945      37.649999999999991      37.649999999999991
   173   1      2.5099999999999945      38.904999999999994      38.904999999999994
   174   1       3.764999999999993      37.649999999999991      38.904999999999994
   175   1       3.764999999999993      38.904999999999994      37.649999999999991
   176   1       3.764999999999993      38.904999999999994      40.159999999999989
   177   1       3.764999999999993      40.159999999999989      26.354999999999993
   178   1       3.764999999999993      40.159999999999989      28.864999999999991
   179   1       3.764999999999993      40.159999999999989      31.374999999999993
   180   1       3.764999999999993      40.159999999999989      33.884999999999998
   181   1       3.764999999999993      40.159999999999989      36.394999999999996
   182   1       3.764999999999993      40.159999999999989      38.904999999999994
   183   1       6.274999999999995       21.33499999999999      22.589999999999993
   184   1       6.274999999999995       21.33499999999999      25.099999999999994
   185   1       6.274999999999995       21.33499999999999      27.609999999999992
   186   1       6.274999999999995       21.33499999999999       30.11999999999999
   187   1       6.274999999999995       21.33499999999999      32.629999999999995
   188   1       6.274999999999995       21.33499999999999      35.139999999999993
   189   1       6.274999999999995       21.33499999999999      37.649999999999991
   190   1       6.274999999999995       21.33499999999999      40.159999999999989
   191   1       6.274999999999995       21.33499999999999      42.669999999999987
   192   1       6.274999999999995      22.589999999999993       21.33499999999999
   193   1       5.019999999999996      22.589999999999993      22.589999999999993
   194   1       5.019999999999996      23.844999999999988      23.844999999999988
   195   1       6.274999999999995      22.589999999999993      23.844999999999988
   196   1       6.274999999999995      23.844999999999988      22.589999999999993
   197   1       5.019999999999996      22.589999999999993      25.099999999999994
   198   1       5.019999999999996      23.844999999999988      26.354999999999993
   199   1       6.274999999999995      22.589999999999993      26.354999999999993
   200   1       6.274999999999995      23.844999999999988      25.099999999999994
   201   1       5.019999999999996      22.589999999999993      27.609999999999992
   202   1       5.019999999999996      23.844999999999988      28.864999999999991
   203   1       6.274999999999995      22.589999999999993      28.864999999999991
   204   1       6.274999999999995      23.844999999999988      27.609999999999992
   205   1       5.019999999999996      22.589999999999993       30.11999999999999
   206   1       5.019999999999996      23.844999999999988      31.374999999999993
   207   1       6.274999999999995      22.589999999999993      31.374999999999993
   208   1       6.274999999999995      23.844999999999988       30.11999999999999
   209   1       5.019999999999996      22.589999999999993      32.629999999999995
   210   1       5.019999999999996      23.844999999999988      33.884999999999998
   211   1       6.274999999999995      22.589999999999993      33.884999999999998
   212   1       6.274999999999995      23.844999999999988      32.629999999999995
   213   1       5.019999999999996      22.589999999999993      35.139999999999993
   214   1       5.019999999999996      23.844999999999988      36.394999999999996
   215   1       6.274999999999995      22.589999999999993      36.394999999999996
   216   1       6.274999999999995      23.844999999999988      35.139999999999993
   217   1       5.019999999999996      22.589999999999993      37.649999999999991
   218   1       5.019999999999996      23.844999999999988      38.904999999999994
   219   1       6.274999999999995      22.589999999999993      38.904999999999994
   220   1       6.274999999999995      23.844999999999988      37.649999999999991
   221   1       5.019999999999996      22.589999999999993      40.159999999999989
   222   1       5.019999999999996      23.844999999999988      41.414999999999992
   223   1       6.274999999999995      22.589999999999993      41.414999999999992
   224   1       6.274999999999995      23.844999999999988      40.159999999999989
   225   1       5.019999999999996      22.589999999999993      42.669999999999987
   226   1       6.274999999999995      22.589999999999993      43.924999999999983
   227   1       6.274999999999995      23.844999999999988      42.669999999999987
   228   1       6.274999999999995      25.099999999999994       21.33499999999999
   229   1       5.019999999999996      25.099999999999994      22.589999999999993
   230   1       5.019999999999996      26.354999999999993      23.844999999999988
   231   1       6.274999999999995      25.099999999999994      23.844999999999988
   232   1       6.274999999999995      26.354999999999993      22.589999999999993
   233   1       5.019999999999996      25.099999999999994      25.099999999999994
   234   1       5.019999999999996      26.354999999999993      26.354999999999993
   235   1       6.274999999999995      25.099999999999994      26.354999999999993
   236   1       6.274999999999995      26.354999999999993      25.099999999999994
   237   1       5.019999999999996      25.099999999999994      27.609999999999992
   238   1       5.019999999999996      26.354999999999993      28.864999999999991
   239   1       6.274999999999995      25.099999999999994      28.864999999999991
   240   1       6.274999999999995      26.354999999999993      27.609999999999992
   241   1       5.019999999999996      25.099999999999994       30.11999999999999
   242   1       5.019999999999996      26.354999999999993      31.374999999999993
   243   1       6.274999999999995      25.099999999999994      31.374999999999993
   244   1       6.274999999999995      26.354999999999993       30.11999999999999
   245   1       5.019999999999996      25.099999999999994      32.629999999999995
   246   1       5.019999999999996      26.354999999999993      33.884999999999998
   247   1       6.274999999999995      25.099999999999994      33.884999999999998
   248   1       6.274999999999995      26.354999999999993      32.629999999999995
   249   1       5.019999999999996      25.099999999999994      35.139999999999993
   250   1       5.019999999999996      26.354999999999993      36.394999999999996
   251   1       6.274999999999995      25.099999999999994      36.394999999999996
   252   1       6.274999999999995      26.354999999999993      35.139999999999993
   253   1       5.019999999999996      25.099999999999994      37.649999999999991
   254   1       5.019999999999996      26.354999999999993      38.904999999999994
   255   1       6.274999999999995      25.099999999999994      38.904999999999994
   256   1       6.274999999999995      26.354999999999993      37.649999999999991
   257   1       5.019999999999996      25.099999999999994      40.159999999999989
   258   1       5.019999999999996      26.354999999999993      41.414999999999992
   259   1       6.274999999999995      25.099999999999994      41.414999999999992
   260   1       6.274999999999995      26.354999999999993      40.159999999999989
   261   1       5.019999999999996      25.099999999999994      42.669999999999987
   262   1       6.274999999999995      25.099999999999994      43.924999999999983
   263   1       6.274999999999995      26.354999999999993      42.669999999999987
   264   1       6.274999999999995      27.609999999999992       21.33499999999999
   265   1       5.019999999999996      27.609999999999992      22.589999999999993
   266   1       5.019999999999996      28.864999999999991      23.844999999999988
   267   1       6.274999999999995      27.609999999999992      23.844999999999988
   268   1       6.274999999999995      28.864999999999991      22.589999999999993
   269   1       5.019999999999996      27.609999999999992      25.099999999999994
   270   1       5.019999999999996      28.864999999999991      26.354999999999993
   271   1       6.274999999999995      27.609999999999992      26.354999999999993
   272   1       6.274999999999995      28.864999999999991      25.099999999999994
   273   1       5.019999999999996      27.609999999999992      27.609999999999992
   274   1       5.019999999999996      28.864999999999991      28.864999999999991
   275   1       6.274999999999995      27.609999999999992      28.864999999999991
   276   1       6.274999999999995      28.864999999999991      27.609999999999992
   277   1       5.019999999999996      27.609999999999992       30.11999999999999
   278   1       5.019999999999996      28.864999999999991      31.374999999999993
   279   1       6.274999999999995      27.609999999999992      31.374999999999993
   280   1       6.274999999999995      28.864999999999991       30.11999999999999
   281   1       5.019999999999996      27.609999999999992      32.629999999999995
   282   1       5.019999999999996      28.864999999999991      33.884999999999998
   283   1       6.274999999999995      27.609999999999992      33.884999999999998
   284   1       6.274999999999995      28.864999999999991      32.629999999999995
   285   1       5.019999999999996      27.609999999999992      35.139999999999993
   286   1       5.019999999999996      28.864999999999991      36.394999999999996
   287   1       6.274999999999995      27.609999999999992      36.394999999999996
   288   1       6.274999999999995      28.864999999999991      35.139999999999993
   289   1       5.019999999999996      27.609999999999992      37.649999999999991
   290   1       5.019999999999996      28.864999999999991      38.904999999999994
   291   1       6.274999999999995      27.609999999999992      38.904999999999994
   292   1       6.274999999999995      28.864999999999991      37.649999999999991
   293   1       5.019999999999996      27.609999999999992      40.159999999999989
   294   1       5.019999999999996      28.864999999999991      41.414999999999992
   295   1       6.274999999999995      27.609999999999992      41.414999999999992
   296   1       6.274999999999995      28.864999999999991      40.159999999999989
   297   1       5.019999999999996      27.609999999999992      42.669999999999987
   298   1       6.274999999999995      27.609999999999992      43.924999999999983
   299   1       6.274999999999995      28.864999999999991      42.669999999999987
   300   1       6.274999999999995       30.11999999999999       21.33499999999999
   301   1       5.019999999999996       30.11999999999999      22.589999999999993
   302   1       5.019999999999996      31.374999999999993      23.844999999999988
   303   1       6.274999999999995       30.11999999999999      23.844999999999988
   304   1       6.274999999999995      31.374999999999993      22.589999999999993
   305   1       5.019999999999996       30.11999999999999      25.099999999999994
   306   1       5.019999999999996      31.374999999999993      26.354999999999993
   307   1       6.274999999999995       30.11999999999999      26.354999999999993
   308   1       6.274999999999995      31.374999999999993      25.099999999999994
   309   1       5.019999999999996       30.11999999999999      27.609999999999992
   310   1       5.019999999999996      31.374999999999993      28.864999999999991
   311   1       6.274999999999995       30.11999999999999      28.864999999999991
   312   1       6.274999999999995      31.374999999999993      27.609999999999992
   313   1       5.019999999999996       30.11999999999999       30.11999999999999
   314   1       5.019999999999996      31.374999999999993      31.374999999999993
   315   1       6.274999999999995       30.11999999999999      31.374999999999993
   316   1       6.274999999999995      31.374999999999993       30.11999999999999
   317   1       5.019999999999996       30.11999999999999      32.629999999999995
   318   1       5.019999999999996      31.374999999999993      33.884999999999998
   319   1       6.274999999999995       30.11999999999999      33.884999999999998
   320   1       6.274999999999995      31.374999999999993      32.629999999999995
   321   1       5.019999999999996       30.11999999999999      35.139999999999993
   322   1       5.019999999999996      31.374999999999993      36.394999999999996
   323   1       6.274999999999995       30.11999999999999      36.394999999999996
   324   1       6.274999999999995      31.374999999999993      35.139999999999993
   325   1       5.019999999999996       30.11999999999999      37.649999999999991
   326   1       5.019999999999996      31.374999999999993      38.904999999999994
   327   1       6.274999999999995       30.11999999999999      38.904999999999994
   328   1       6.274999999999995      31.374999999999993      37.649999999999991
   329   1       5.019999999999996       30.11999999999999      40.159999999999989
   330   1       5.019999999999996      31.374999999999993      41.414999999999992
   331   1       6.274999999999995       30.11999999999999      41.414999999999992
   332   1       6.274999999999995      31.374999999999993      40.159999999999989
   333   1       5.019999999999996       30.11999999999999      42.669999999999987
   334   1       6.274999999999995       30.11999999999999      43.924999999999983
   335   1       6.274999999999995      31.374999999999993      42.669999999999987
   336   1       6.274999999999995      32.629999999999995       21.33499999999999
   337   1       5.019999999999996      32.629999999999995      22.589999999999993
   338   1       5.019999999999996      33.884999999999998      23.844999999999988
   339   1       6.274999999999995      32.629999999999995      23.844999999999988
   340   1       6.274999999999995      33.884999999999998      22.589999999999993
   341   1       5.019999999999996      32.629999999999995      25.099999999999994
   342   1       5.019999999999996      33.884999999999998      26.354999999999993
   343   1       6.274999999999995      32.629999999999995      26.354999999999993
   344   1       6.274999999999995      33.884999999999998      25.099999999999994
   345   1       5.019999999999996      32.629999999999995      27.609999999999992
   346   1       5.019999999999996      33.884999999999998      28.864999999999991
   347   1       6.274999999999995      32.629999999999995      28.864999999999991
   348   1       6.274999999999995      33.884999999999998      27.609999999999992
   349   1       5.019999999999996      32.629999999999995       30.11999999999999
   350   1       5.019999999999996      33.884999999999998      31.374999999999993
   351   1       6.274999999999995      32.629999999999995      31.374999999999993
   352   1       6.274999999999995      33.884999999999998       30.11999999999999
   353   1       5.019999999999996      32.629999999999995      32.629999999999995
   354   1       5.019999999999996      33.884999999999998      33.884999999999998
   355   1       6.274999999999995      32.629999999999995      33.884999999999998
   356   1       6.274999999999995      33.884999999999998      32.629999999999995
   357   1       5.019999999999996      32.629999999999995      35.139999999999993
   358   1       5.019999999999996      33.884999999999998      36.394999999999996