LAMMPS data file via write_data, version 30 Nov 2020, timestep = 0

29881 atoms
5 atom types

0 117 xlo xhi
0 117 ylo yhi
0 117 zlo zhi

Masses

1 58.7
2 55.8
3 52
4 59
5 26

Atoms # atomic

1 2 0 55.955000000000005 55.955000000000005 0 0 0
2 1 1.805 54.150000000000006 55.955000000000005 0 0 0
3 5 1.805 55.955000000000005 54.150000000000006 0 0 0
6 2 1.805 55.955000000000005 57.760000000000005 0 0 0
9 5 1.805 57.760000000000005 55.955000000000005 0 0 0
11 2 0 57.760000000000005 57.760000000000005 0 0 0
18 5 3.61 52.345 55.955000000000005 0 0 0
19 3 5.415 50.540000000000006 55.955000000000005 0 0 0
20 3 5.415 52.345 54.150000000000006 0 0 0
23 3 5.415 52.345 57.760000000000005 0 0 0
25 3 3.61 55.955000000000005 52.345 0 0 0
26 1 5.415 54.150000000000006 52.345 0 0 0
27 2 5.415 55.955000000000005 50.540000000000006 0 0 0
28 2 3.61 54.150000000000006 54.150000000000006 0 0 0
29 2 3.61 55.955000000000005 55.955000000000005 0 0 0
30 2 5.415 54.150000000000006 55.955000000000005 0 0 0
31 5 5.415 55.955000000000005 54.150000000000006 0 0 0
32 3 3.61 54.150000000000006 57.760000000000005 0 0 0
35 4 5.415 55.955000000000005 57.760000000000005 0 0 0
42 4 5.415 57.760000000000005 52.345 0 0 0
44 1 3.61 57.760000000000005 54.150000000000006 0 0 0
46 2 5.415 57.760000000000005 55.955000000000005 0 0 0
48 2 3.61 57.760000000000005 57.760000000000005 0 0 0
71 2 7.22 48.73500000000001 55.955000000000005 0 0 0
72 3 9.024999999999999 46.93000000000001 55.955000000000005 0 0 0
73 1 9.024999999999999 48.73500000000001 54.150000000000006 0 0 0
76 2 9.024999999999999 48.73500000000001 57.760000000000005 0 0 0
78 3 7.22 52.345 52.345 0 0 0
79 4 9.024999999999999 50.540000000000006 52.345 0 0 0
80 3 9.024999999999999 52.345 50.540000000000006 0 0 0
81 3 7.22 50.540000000000006 54.150000000000006 0 0 0
82 3 7.22 52.345 55.955000000000005 0 0 0
83 4 9.024999999999999 50.540000000000006 55.955000000000005 0 0 0
84 2 9.024999999999999 52.345 54.150000000000006 0 0 0
85 4 7.22 50.540000000000006 57.760000000000005 0 0 0
88 1 9.024999999999999 52.345 57.760000000000005 0 0 0
94 3 7.22 55.955000000000005 48.73500000000001 0 0 0
95 2 9.024999999999999 54.150000000000006 48.73500000000001 0 0 0
96 2 9.024999999999999 55.955000000000005 46.93000000000001 0 0 0
97 2 7.22 54.150000000000006 50.540000000000006 0 0 0
98 1 7.22 55.955000000000005 52.345 0 0 0
99 4 9.024999999999999 54.150000000000006 52.345 0 0 0
100 5 9.024999999999999 55.955000000000005 50.540000000000006 0 0 0
101 3 7.22 54.150000000000006 54.150000000000006 0 0 0
102 5 7.22 55.955000000000005 55.955000000000005 0 0 0
103 3 9.024999999999999 54.150000000000006 55.955000000000005 0 0 0
104 1 9.024999999999999 55.955000000000005 54.150000000000006 0 0 0
105 2 7.22 54.150000000000006 57.760000000000005 0 0 0
108 5 9.024999999999999 55.955000000000005 57.760000000000005 0 0 0
119 3 9.024999999999999 57.760000000000005 48.73500000000001 0 0 0
121 4 7.22 57.760000000000005 50.540000000000006 0 0 0
123 2 9.024999999999999 57.760000000000005 52.345 0 0 0
125 1 7.22 57.760000000000005 54.150000000000006 0 0 0
127 2 9.024999999999999 57.760000000000005 55.955000000000005 0 0 0
129 2 7.22 57.760000000000005 57.760000000000005 0 0 0
176 3 10.83 45.125 55.955000000000005 0 0 0
177 5 12.635 43.32000000000001 55.955000000000005 0 0 0
178 4 12.635 45.125 54.150000000000006 0 0 0
181 2 12.635 45.125 57.760000000000005 0 0 0
183 1 10.83 48.73500000000001 52.345 0 0 0
184 2 12.635 46.93000000000001 52.345 0 0 0
185 3 12.635 48.73500000000001 50.540000000000006 0 0 0
186 1 10.83 46.93000000000001 54.150000000000006 0 0 0
187 3 10.83 48.73500000000001 55.955000000000005 0 0 0
188 2 12.635 46.93000000000001 55.955000000000005 0 0 0
189 4 12.635 48.73500000000001 54.150000000000006 0 0 0
190 4 10.83 46.93000000000001 57.760000000000005 0 0 0
193 2 12.635 48.73500000000001 57.760000000000005 0 0 0
199 2 10.83 52.345 48.73500000000001 0 0 0
200 4 12.635 50.540000000000006 48.73500000000001 0 0 0
201 1 12.635 52.345 46.93000000000001 0 0 0
202 2 10.83 50.540000000000006 50.540000000000006 0 0 0
203 3 10.83 52.345 52.345 0 0 0
204 2 12.635 50.540000000000006 52.345 0 0 0
205 2 12.635 52.345 50.540000000000006 0 0 0
206 5 10.83 50.540000000000006 54.150000000000006 0 0 0
207 1 10.83 52.345 55.955000000000005 0 0 0
208 4 12.635 50.540000000000006 55.955000000000005 0 0 0
209 3 12.635 52.345 54.150000000000006 0 0 0
210 3 10.83 50.540000000000006 57.760000000000005 0 0 0
213 1 12.635 52.345 57.760000000000005 0 0 0
223 2 10.83 55.955000000000005 45.125 0 0 0
224 1 12.635 54.150000000000006 45.125 0 0 0
225 5 12.635 55.955000000000005 43.32000000000001 0 0 0
226 2 10.83 54.150000000000006 46.93000000000001 0 0 0
227 2 10.83 55.955000000000005 48.73500000000001 0 0 0
228 1 12.635 54.150000000000006 48.73500000000001 0 0 0
229 3 12.635 55.955000000000005 46.93000000000001 0 0 0
230 4 10.83 54.150000000000006 50.540000000000006 0 0 0
231 4 10.83 55.955000000000005 52.345 0 0 0
232 5 12.635 54.150000000000006 52.345 0 0 0
233 4 12.635 55.955000000000005 50.540000000000006 0 0 0
234 4 10.83 54.150000000000006 54.150000000000006 0 0 0
235 4 10.83 55.955000000000005 55.955000000000005 0 0 0
236 4 12.635 54.150000000000006 55.955000000000005 0 0 0
237 3 12.635 55.955000000000005 54.150000000000006 0 0 0
238 5 10.83 54.150000000000006 57.760000000000005 0 0 0
241 2 12.635 55.955000000000005 57.760000000000005 0 0 0
256 5 12.635 57.760000000000005 45.125 0 0 0
258 3 10.83 57.760000000000005 46.93000000000001 0 0 0
260 4 12.635 57.760000000000005 48.73500000000001 0 0 0
262 3 10.83 57.760000000000005 50.540000000000006 0 0 0
264 4 12.635 57.760000000000005 52.345 0 0 0
266 2 10.83 57.760000000000005 54.150000000000006 0 0 0
268 1 12.635 57.760000000000005 55.955000000000005 0 0 0
270 4 10.83 57.760000000000005 57.760000000000005 0 0 0
349 5 14.440000000000007 41.51500000000001 55.955000000000005 0 0 0
350 4 16.245 39.71000000000001 55.955000000000005 0 0 0
351 2 16.245 41.51500000000001 54.150000000000006 0 0 0
354 5 16.245 41.51500000000001 57.760000000000005 0 0 0
356 3 16.245 45.125 46.93000000000001 0 0 0
357 3 14.440000000000007 45.125 52.345 0 0 0
358 5 16.245 43.32000000000001 52.345 0 0 0
359 3 16.245 45.125 50.540000000000006 0 0 0
360 1 14.440000000000007 43.32000000000001 54.150000000000006 0 0 0
361 3 14.440000000000007 45.125 55.955000000000005 0 0 0
362 2 16.245 43.32000000000001 55.955000000000005 0 0 0
363 5 16.245 45.125 54.150000000000006 0 0 0
364 3 14.440000000000007 43.32000000000001 57.760000000000005 0 0 0
367 5 16.245 45.125 57.760000000000005 0 0 0
374 1 16.245 46.93000000000001 45.125 0 0 0
375 1 14.440000000000007 46.93000000000001 46.93000000000001 0 0 0
376 2 14.440000000000007 48.73500000000001 48.73500000000001 0 0 0
377 2 16.245 46.93000000000001 48.73500000000001 0 0 0
378 4 16.245 48.73500000000001 46.93000000000001 0 0 0
379 1 14.440000000000007 46.93000000000001 50.540000000000006 0 0 0
380 2 14.440000000000007 48.73500000000001 52.345 0 0 0
381 5 16.245 46.93000000000001 52.345 0 0 0
382 2 16.245 48.73500000000001 50.540000000000006 0 0 0
383 5 14.440000000000007 46.93000000000001 54.150000000000006 0 0 0
384 4 14.440000000000007 48.73500000000001 55.955000000000005 0 0 0
385 1 16.245 46.93000000000001 55.955000000000005 0 0 0
386 5 16.245 48.73500000000001 54.150000000000006 0 0 0
387 5 14.440000000000007 46.93000000000001 57.760000000000005 0 0 0
390 5 16.245 48.73500000000001 57.760000000000005 0 0 0
402 3 14.440000000000007 52.345 45.125 0 0 0
403 4 16.245 50.540000000000006 45.125 0 0 0
404 5 16.245 52.345 43.32000000000001 0 0 0
405 5 14.440000000000007 50.540000000000006 46.93000000000001 0 0 0
406 3 14.440000000000007 52.345 48.73500000000001 0 0 0
407 3 16.245 50.540000000000006 48.73500000000001 0 0 0
408 4 16.245 52.345 46.93000000000001 0 0 0
409 4 14.440000000000007 50.540000000000006 50.540000000000006 0 0 0
410 4 14.440000000000007 52.345 52.345 0 0 0
411 4 16.245 50.540000000000006 52.345 0 0 0
412 2 16.245 52.345 50.540000000000006 0 0 0
413 4 14.440000000000007 50.540000000000006 54.150000000000006 0 0 0
414 3 14.440000000000007 52.345 55.955000000000005 0 0 0
415 4 16.245 50.540000000000006 55.955000000000005 0 0 0
416 5 16.245 52.345 54.150000000000006 0 0 0
417 2 14.440000000000007 50.540000000000006 57.760000000000005 0 0 0
420 3 16.245 52.345 57.760000000000005 0 0 0
434 1 14.440000000000007 55.955000000000005 41.51500000000001 0 0 0
435 4 16.245 54.150000000000006 41.51500000000001 0 0 0
436 4 16.245 55.955000000000005 39.71000000000001 0 0 0
437 3 14.440000000000007 54.150000000000006 43.32000000000001 0 0 0
438 4 14.440000000000007 55.955000000000005 45.125 0 0 0
439 5 16.245 54.150000000000006 45.125 0 0 0
440 4 16.245 55.955000000000005 43.32000000000001 0 0 0
441 4 14.440000000000007 54.150000000000006 46.93000000000001 0 0 0
442 5 14.440000000000007 55.955000000000005 48.73500000000001 0 0 0
443 4 16.245 54.150000000000006 48.73500000000001 0 0 0
444 1 16.245 55.955000000000005 46.93000000000001 0 0 0
445 4 14.440000000000007 54.150000000000006 50.540000000000006 0 0 0
446 3 14.440000000000007 55.955000000000005 52.345 0 0 0
447 3 16.245 54.150000000000006 52.345 0 0 0
448 4 16.245 55.955000000000005 50.540000000000006 0 0 0
449 1 14.440000000000007 54.150000000000006 54.150000000000006 0 0 0
450 4 14.440000000000007 55.955000000000005 55.955000000000005 0 0 0
451 5 16.245 54.150000000000006 55.955000000000005 0 0 0
452 1 16.245 55.955000000000005 54.150000000000006 0 0 0
453 2 14.440000000000007 54.150000000000006 57.760000000000005 0 0 0
456 1 16.245 55.955000000000005 57.760000000000005 0 0 0
475 1 16.245 57.760000000000005 41.51500000000001 0 0 0
477 5 14.440000000000007 57.760000000000005 43.32000000000001 0 0 0
479 3 16.245 57.760000000000005 45.125 0 0 0
481 2 14.440000000000007 57.760000000000005 46.93000000000001 0 0 0
483 1 16.245 57.760000000000005 48.73500000000001 0 0 0
485 1 14.440000000000007 57.760000000000005 50.540000000000006 0 0 0
487 2 16.245 57.760000000000005 52.345 0 0 0
489 1 14.440000000000007 57.760000000000005 54.150000000000006 0 0 0
491 2 16.245 57.760000000000005 55.955000000000005 0 0 0
493 2 14.440000000000007 57.760000000000005 57.760000000000005 0 0 0
618 4 18.050000000000008 37.905 55.955000000000005 0 0 0
619 4 19.855 36.10000000000001 55.955000000000005 0 0 0
620 1 19.855 37.905 54.150000000000006 0 0 0
623 4 19.855 37.905 57.760000000000005 0 0 0
625 3 19.855 41.51500000000001 46.93000000000001 0 0 0
626 2 18.050000000000008 41.51500000000001 52.345 0 0 0
627 4 19.855 39.71000000000001 52.345 0 0 0
628 3 19.855 41.51500000000001 50.540000000000006 0 0 0
629 5 18.050000000000008 39.71000000000001 54.150000000000006 0 0 0
630 2 18.050000000000008 41.51500000000001 55.955000000000005 0 0 0
631 1 19.855 39.71000000000001 55.955000000000005 0 0 0
632 3 19.855 41.51500000000001 54.150000000000006 0 0 0
633 2 18.050000000000008 39.71000000000001 57.760000000000005 0 0 0
636 2 19.855 41.51500000000001 57.760000000000005 0 0 0
643 4 18.050000000000008 45.125 45.125 0 0 0
644 2 19.855 43.32000000000001 45.125 0 0 0
645 3 19.855 45.125 43.32000000000001 0 0 0
646 1 18.050000000000008 43.32000000000001 46.93000000000001 0 0 0
647 3 18.050000000000008 45.125 48.73500000000001 0 0 0
648 4 19.855 43.32000000000001 48.73500000000001 0 0 0
649 3 19.855 45.125 46.93000000000001 0 0 0
650 4 18.050000000000008 43.32000000000001 50.540000000000006 0 0 0
651 2 18.050000000000008 45.125 52.345 0 0 0
652 4 19.855 43.32000000000001 52.345 0 0 0
653 2 19.855 45.125 50.540000000000006 0 0 0
654 2 18.050000000000008 43.32000000000001 54.150000000000006 0 0 0
655 2 18.050000000000008 45.125 55.955000000000005 0 0 0
656 5 19.855 43.32000000000001 55.955000000000005 0 0 0
657 1 19.855 45.125 54.150000000000006 0 0 0
658 1 18.050000000000008 43.32000000000001 57.760000000000005 0 0 0
661 4 19.855 45.125 57.760000000000005 0 0 0
675 4 19.855 46.93000000000001 41.51500000000001 0 0 0
676 2 18.050000000000008 46.93000000000001 43.32000000000001 0 0 0
677 4 18.050000000000008 48.73500000000001 45.125 0 0 0
678 3 19.855 46.93000000000001 45.125 0 0 0
679 1 19.855 48.73500000000001 43.32000000000001 0 0 0
680 1 18.050000000000008 46.93000000000001 46.93000000000001 0 0 0
681 3 18.050000000000008 48.73500000000001 48.73500000000001 0 0 0
682 3 19.855 46.93000000000001 48.73500000000001 0 0 0
683 2 19.855 48.73500000000001 46.93000000000001 0 0 0
684 4 18.050000000000008 46.93000000000001 50.540000000000006 0 0 0
685 4 18.050000000000008 48.73500000000001 52.345 0 0 0
686 5 19.855 46.93000000000001 52.345 0 0 0
687 4 19.855 48.73500000000001 50.540000000000006 0 0 0
688 5 18.050000000000008 46.93000000000001 54.150000000000006 0 0 0
689 2 18.050000000000008 48.73500000000001 55.955000000000005 0 0 0
690 2 19.855 46.93000000000001 55.955000000000005 0 0 0
691 5 19.855 48.73500000000001 54.150000000000006 0 0 0
692 1 18.050000000000008 46.93000000000001 57.760000000000005 0 0 0
695 4 19.855 48.73500000000001 57.760000000000005 0 0 0
711 1 18.050000000000008 52.345 41.51500000000001 0 0 0
712 2 19.855 50.540000000000006 41.51500000000001 0 0 0
713 2 19.855 52.345 39.71000000000001 0 0 0
714 3 18.050000000000008 50.540000000000006 43.32000000000001 0 0 0
715 3 18.050000000000008 52.345 45.125 0 0 0
716 5 19.855 50.540000000000006 45.125 0 0 0
717 5 19.855 52.345 43.32000000000001 0 0 0
718 3 18.050000000000008 50.540000000000006 46.93000000000001 0 0 0
719 1 18.050000000000008 52.345 48.73500000000001 0 0 0
720 2 19.855 50.540000000000006 48.73500000000001 0 0 0
721 3 19.855 52.345 46.93000000000001 0 0 0
722 3 18.050000000000008 50.540000000000006 50.540000000000006 0 0 0
723 2 18.050000000000008 52.345 52.345 0 0 0
724 4 19.855 50.540000000000006 52.345 0 0 0
725 2 19.855 52.345 50.540000000000006 0 0 0
726 3 18.050000000000008 50.540000000000006 54.150000000000006 0 0 0
727 5 18.050000000000008 52.345 55.955000000000005 0 0 0
728 1 19.855 50.540000000000006 55.955000000000005 0 0 0
729 1 19.855 52.345 54.150000000000006 0 0 0
730 2 18.050000000000008 50.540000000000006 57.760000000000005 0 0 0
733 5 19.855 52.345 57.760000000000005 0 0 0
751 5 18.050000000000008 55.955000000000005 37.905 0 0 0
752 3 19.855 54.150000000000006 37.905 0 0 0
753 1 19.855 55.955000000000005 36.10000000000001 0 0 0
754 1 18.050000000000008 54.150000000000006 39.71000000000001 0 0 0
755 3 18.050000000000008 55.955000000000005 41.51500000000001 0 0 0
756 2 19.855 54.150000000000006 41.51500000000001 0 0 0
757 5 19.855 55.955000000000005 39.71000000000001 0 0 0
758 1 18.050000000000008 54.150000000000006 43.32000000000001 0 0 0
759 5 18.050000000000008 55.955000000000005 45.125 0 0 0
760 3 19.855 54.150000000000006 45.125 0 0 0
761 1 19.855 55.955000000000005 43.32000000000001 0 0 0
762 3 18.050000000000008 54.150000000000006 46.93000000000001 0 0 0
763 3 18.050000000000008 55.955000000000005 48.73500000000001 0 0 0
764 3 19.855 54.150000000000006 48.73500000000001 0 0 0
765 2 19.855 55.955000000000005 46.93000000000001 0 0 0
766 5 18.050000000000008 54.150000000000006 50.540000000000006 0 0 0
767 2 18.050000000000008 55.955000000000005 52.345 0 0 0
768 5 19.855 54.150000000000006 52.345 0 0 0
769 5 19.855 55.955000000000005 50.540000000000006 0 0 0
770 2 18.050000000000008 54.150000000000006 54.150000000000006 0 0 0
771 1 18.050000000000008 55.955000000000005 55.955000000000005 0 0 0
772 2 19.855 54.150000000000006 55.955000000000005 0 0 0
773 2 19.855 55.955000000000005 54.150000000000006 0 0 0
774 3 18.050000000000008 54.150000000000006 57.760000000000005 0 0 0
777 3 19.855 55.955000000000005 57.760000000000005 0 0 0
800 5 19.855 57.760000000000005 37.905 0 0 0
802 1 18.050000000000008 57.760000000000005 39.71000000000001 0 0 0
804 3 19.855 57.760000000000005 41.51500000000001 0 0 0
806 4 18.050000000000008 57.760000000000005 43.32000000000001 0 0 0
808 1 19.855 57.760000000000005 45.125 0 0 0
810 1 18.050000000000008 57.760000000000005 46.93000000000001 0 0 0
812 1 19.855 57.760000000000005 48.73500000000001 0 0 0
814 2 18.050000000000008 57.760000000000005 50.540000000000006 0 0 0
816 4 19.855 57.760000000000005 52.345 0 0 0
818 2 18.050000000000008 57.760000000000005 54.150000000000006 0 0 0
820 1 19.855 57.760000000000005 55.955000000000005 0 0 0
822 5 18.050000000000008 57.760000000000005 57.760000000000005 0 0 0
1003 1 21.660000000000007 34.29500000000001 55.955000000000005 0 0 0
1004 4 23.465 32.49 55.955000000000005 0 0 0
1005 2 23.465 34.29500000000001 54.150000000000006 0 0 0
1008 4 23.465 34.29500000000001 57.760000000000005 0 0 0
1010 5 23.465 37.905 46.93000000000001 0 0 0
1011 5 21.660000000000007 37.905 52.345 0 0 0
1012 2 23.465 36.10000000000001 52.345 0 0 0
1013 1 23.465 37.905 50.540000000000006 0 0 0
1014 2 21.660000000000007 36.10000000000001 54.150000000000006 0 0 0
1015 2 21.660000000000007 37.905 55.955000000000005 0 0 0
1016 1 23.465 36.10000000000001 55.955000000000005 0 0 0
1017 5 23.465 37.905 54.150000000000006 0 0 0
1018 4 21.660000000000007 36.10000000000001 57.760000000000005 0 0 0
1021 2 23.465 37.905 57.760000000000005 0 0 0
1028 5 21.660000000000007 41.51500000000001 45.125 0 0 0
1029 4 23.465 39.71000000000001 45.125 0 0 0
1030 1 23.465 41.51500000000001 43.32000000000001 0 0 0
1031 3 21.660000000000007 39.71000000000001 46.93000000000001 0 0 0
1032 5 21.660000000000007 41.51500000000001 48.73500000000001 0 0 0
1033 5 23.465 39.71000000000001 48.73500000000001 0 0 0
1034 2 23.465 41.51500000000001 46.93000000000001 0 0 0
1035 2 21.660000000000007 39.71000000000001 50.540000000000006 0 0 0
1036 5 21.660000000000007 41.51500000000001 52.345 0 0 0
1037 5 23.465 39.71000000000001 52.345 0 0 0
1038 1 23.465 41.51500000000001 50.540000000000006 0 0 0
1039 2 21.660000000000007 39.71000000000001 54.150000000000006 0 0 0
1040 2 21.660000000000007 41.51500000000001 55.955000000000005 0 0 0
1041 2 23.465 39.71000000000001 55.955000000000005 0 0 0
1042 5 23.465 41.51500000000001 54.150000000000006 0 0 0
1043 5 21.660000000000007 39.71000000000001 57.760000000000005 0 0 0
1046 3 23.465 41.51500000000001 57.760000000000005 0 0 0
1060 2 21.660000000000007 45.125 41.51500000000001 0 0 0
1061 5 23.465 43.32000000000001 41.51500000000001 0 0 0
1062 4 23.465 45.125 39.71000000000001 0 0 0
1063 1 21.660000000000007 43.32000000000001 43.32000000000001 0 0 0
1064 1 21.660000000000007 45.125 45.125 0 0 0
1065 1 23.465 43.32000000000001 45.125 0 0 0
1066 2 23.465 45.125 43.32000000000001 0 0 0
1067 4 21.660000000000007 43.32000000000001 46.93000000000001 0 0 0
1068 4 21.660000000000007 45.125 48.73500000000001 0 0 0
1069 5 23.465 43.32000000000001 48.73500000000001 0 0 0
1070 5 23.465 45.125 46.93000000000001 0 0 0
1071 4 21.660000000000007 43.32000000000001 50.540000000000006 0 0 0
1072 1 21.660000000000007 45.125 52.345 0 0 0
1073 5 23.465 43.32000000000001 52.345 0 0 0
1074 4 23.465 45.125 50.540000000000006 0 0 0
1075 3 21.660000000000007 43.32000000000001 54.150000000000006 0 0 0
1076 4 21.660000000000007 45.125 55.955000000000005 0 0 0
1077 2 23.465 43.32000000000001 55.955000000000005 0 0 0
1078 5 23.465 45.125 54.150000000000006 0 0 0
1079 1 21.660000000000007 43.32000000000001 57.760000000000005 0 0 0
1082 3 23.465 45.125 57.760000000000005 0 0 0
1100 3 23.465 46.93000000000001 37.905 0 0 0
1101 1 21.660000000000007 46.93000000000001 39.71000000000001 0 0 0
1102 3 21.660000000000007 48.73500000000001 41.51500000000001 0 0 0
1103 3 23.465 46.93000000000001 41.51500000000001 0 0 0
1104 1 23.465 48.73500000000001 39.71000000000001 0 0 0
1105 3 21.660000000000007 46.93000000000001 43.32000000000001 0 0 0
1106 1 21.660000000000007 48.73500000000001 45.125 0 0 0
1107 5 23.465 46.93000000000001 45.125 0 0 0
1108 2 23.465 48.73500000000001 43.32000000000001 0 0 0
1109 5 21.660000000000007 46.93000000000001 46.93000000000001 0 0 0
1110 1 21.660000000000007 48.73500000000001 48.73500000000001 0 0 0
1111 4 23.465 46.93000000000001 48.73500000000001 0 0 0
1112 1 23.465 48.73500000000001 46.93000000000001 0 0 0
1113 3 21.660000000000007 46.93000000000001 50.540000000000006 0 0 0
1114 5 21.660000000000007 48.73500000000001 52.345 0 0 0
1115 5 23.465 46.93000000000001 52.345 0 0 0
1116 2 23.465 48.73500000000001 50.540000000000006 0 0 0
1117 3 21.660000000000007 46.93000000000001 54.150000000000006 0 0 0
1118 5 21.660000000000007 48.73500000000001 55.955000000000005 0 0 0
1119 2 23.465 46.93000000000001 55.955000000000005 0 0 0
1120 4 23.465 48.73500000000001 54.150000000000006 0 0 0
1121 5 21.660000000000007 46.93000000000001 57.760000000000005 0 0 0
1124 2 23.465 48.73500000000001 57.760000000000005 0 0 0
1144 5 21.660000000000007 52.345 37.905 0 0 0
1145 4 23.465 50.540000000000006 37.905 0 0 0
1146 4 23.465 52.345 36.10000000000001 0 0 0
1147 1 21.660000000000007 50.540000000000006 39.71000000000001 0 0 0
1148 4 21.660000000000007 52.345 41.51500000000001 0 0 0
1149 5 23.465 50.540000000000006 41.51500000000001 0 0 0
1150 3 23.465 52.345 39.71000000000001 0 0 0
1151 5 21.660000000000007 50.540000000000006 43.32000000000001 0 0 0
1152 2 21.660000000000007 52.345 45.125 0 0 0
1153 5 23.465 50.540000000000006 45.125 0 0 0
1154 1 23.465 52.345 43.32000000000001 0 0 0
1155 2 21.660000000000007 50.540000000000006 46.93000000000001 0 0 0
1156 2 21.660000000000007 52.345 48.73500000000001 0 0 0
1157 2 23.465 50.540000000000006 48.73500000000001 0 0 0
1158 3 23.465 52.345 46.93000000000001 0 0 0
1159 4 21.660000000000007 50.540000000000006 50.540000000000006 0 0 0
1160 4 21.660000000000007 52.345 52.345 0 0 0
1161 2 23.465 50.540000000000006 52.345 0 0 0
1162 5 23.465 52.345 50.540000000000006 0 0 0
1163 2 21.660000000000007 50.540000000000006 54.150000000000006 0 0 0
1164 4 21.660000000000007 52.345 55.955000000000005 0 0 0
1165 3 23.465 50.540000000000006 55.955000000000005 0 0 0
1166 1 23.465 52.345 54.150000000000006 0 0 0
1167 1 21.660000000000007 50.540000000000006 57.760000000000005 0 0 0
1170 4 23.465 52.345 57.760000000000005 0 0 0
1192 4 21.660000000000007 55.955000000000005 34.29500000000001 0 0 0
1193 1 23.465 54.150000000000006 34.29500000000001 0 0 0
1194 3 23.465 55.955000000000005 32.49 0 0 0
1195 3 21.660000000000007 54.150000000000006 36.10000000000001 0 0 0
1196 5 21.660000000000007 55.955000000000005 37.905 0 0 0
1197 3 23.465 54.150000000000006 37.905 0 0 0
1198 4 23.465 55.955000000000005 36.10000000000001 0 0 0
1199 3 21.660000000000007 54.150000000000006 39.71000000000001 0 0 0
1200 2 21.660000000000007 55.955000000000005 41.51500000000001 0 0 0
1201 4 23.465 54.150000000000006 41.51500000000001 0 0 0
1202 5 23.465 55.955000000000005 39.71000000000001 0 0 0
1203 3 21.660000000000007 54.150000000000006 43.32000000000001 0 0 0
1204 5 21.660000000000007 55.955000000000005 45.125 0 0 0
1205 4 23.465 54.150000000000006 45.125 0 0 0
1206 2 23.465 55.955000000000005 43.32000000000001 0 0 0
1207 1 21.660000000000007 54.150000000000006 46.93000000000001 0 0 0
1208 1 21.660000000000007 55.955000000000005 48.73500000000001 0 0 0
1209 2 23.465 54.150000000000006 48.73500000000001 0 0 0
1210 2 23.465 55.955000000000005 46.93000000000001 0 0 0
1211 2 21.660000000000007 54.150000000000006 50.540000000000006 0 0 0
1212 1 21.660000000000007 55.955000000000005 52.345 0 0 0
1213 5 23.465 54.150000000000006 52.345 0 0 0
1214 2 23.465 55.955000000000005 50.540000000000006 0 0 0
1215 4 21.660000000000007 54.150000000000006 54.150000000000006 0 0 0
1216 1 21.660000000000007 55.955000000000005 55.955000000000005 0 0 0
1217 4 23.465 54.150000000000006 55.955000000000005 0 0 0
1218 1 23.465 55.955000000000005 54.150000000000006 0 0 0
1219 2 21.660000000000007 54.150000000000006 57.760000000000005 0 0 0
1222 3 23.465 55.955000000000005 57.760000000000005 0 0 0
1249 4 23.465 57.760000000000005 34.29500000000001 0 0 0
1251 5 21.660000000000007 57.760000000000005 36.10000000000001 0 0 0
1253 3 23.465 57.760000000000005 37.905 0 0 0
1255 5 21.660000000000007 57.760000000000005 39.71000000000001 0 0 0
1257 4 23.465 57.760000000000005 41.51500000000001 0 0 0
1259 3 21.660000000000007 57.760000000000005 43.32000000000001 0 0 0
1261 5 23.465 57.760000000000005 45.125 0 0 0
1263 2 21.660000000000007 57.760000000000005 46.93000000000001 0 0 0
1265 5 23.465 57.760000000000005 48.73500000000001 0 0 0
1267 4 21.660000000000007 57.760000000000005 50.540000000000006 0 0 0
1269 4 23.465 57.760000000000005 52.345 0 0 0
1271 3 21.660000000000007 57.760000000000005 54.150000000000006 0 0 0
1273 4 23.465 57.760000000000005 55.955000000000005 0 0 0
1275 4 21.660000000000007 57.760000000000005 57.760000000000005 0 0 0
1520 4 25.270000000000007 30.685000000000002 55.955000000000005 0 0 0
1521 3 27.075000000000003 28.880000000000006 55.955000000000005 0 0 0
1522 1 27.075000000000003 30.685000000000002 54.150000000000006 0 0 0
1525 5 27.075000000000003 30.685000000000002 57.760000000000005 0 0 0
1527 2 27.075000000000003 34.29500000000001 46.93000000000001 0 0 0
1528 2 25.270000000000007 34.29500000000001 52.345 0 0 0
1529 4 27.075000000000003 32.49 52.345 0 0 0
1530 1 27.075000000000003 34.29500000000001 50.540000000000006 0 0 0
1531 3 25.270000000000007 32.49 54.150000000000006 0 0 0
1532 3 25.270000000000007 34.29500000000001 55.955000000000005 0 0 0
1533 5 27.075000000000003 32.49 55.955000000000005 0 0 0
1534 2 27.075000000000003 34.29500000000001 54.150000000000006 0 0 0
1535 4 25.270000000000007 32.49 57.760000000000005 0 0 0
1538 5 27.075000000000003 34.29500000000001 57.760000000000005 0 0 0
1545 2 25.270000000000007 37.905 45.125 0 0 0
1546 3 27.075000000000003 36.10000000000001 45.125 0 0 0
1547 5 27.075000000000003 37.905 43.32000000000001 0 0 0
1548 5 25.270000000000007 36.10000000000001 46.93000000000001 0 0 0
1549 1 25.270000000000007 37.905 48.73500000000001 0 0 0
1550 5 27.075000000000003 36.10000000000001 48.73500000000001 0 0 0
1551 2 27.075000000000003 37.905 46.93000000000001 0 0 0
1552 4 25.270000000000007 36.10000000000001 50.540000000000006 0 0 0
1553 3 25.270000000000007 37.905 52.345 0 0 0
1554 5 27.075000000000003 36.10000000000001 52.345 0 0 0
1555 2 27.075000000000003 37.905 50.540000000000006 0 0 0
1556 5 25.270000000000007 36.10000000000001 54.150000000000006 0 0 0
1557 1 25.270000000000007 37.905 55.955000000000005 0 0 0
1558 4 27.075000000000003 36.10000000000001 55.955000000000005 0 0 0
1559 4 27.075000000000003 37.905 54.150000000000006 0 0 0
1560 2 25.270000000000007 36.10000000000001 57.760000000000005 0 0 0
1563 2 27.075000000000003 37.905 57.760000000000005 0 0 0
1577 1 25.270000000000007 41.51500000000001 41.51500000000001 0 0 0
1578 5 27.075000000000003 39.71000000000001 41.51500000000001 0 0 0
1579 3 27.075000000000003 41.51500000000001 39.71000000000001 0 0 0
1580 3 25.270000000000007 39.71000000000001 43.32000000000001 0 0 0
1581 1 25.270000000000007 41.51500000000001 45.125 0 0 0
1582 3 27.075000000000003 39.71000000000001 45.125 0 0 0
1583 4 27.075000000000003 41.51500000000001 43.32000000000001 0 0 0
1584 2 25.270000000000007 39.71000000000001 46.93000000000001 0 0 0
1585 4 25.270000000000007 41.51500000000001 48.73500000000001 0 0 0
1586 3 27.075000000000003 39.71000000000001 48.73500000000001 0 0 0
1587 5 27.075000000000003 41.51500000000001 46.93000000000001 0 0 0
1588 4 25.270000000000007 39.71000000000001 50.540000000000006 0 0 0
1589 2 25.270000000000007 41.51500000000001 52.345 0 0 0
1590 4 27.075000000000003 39.71000000000001 52.345 0 0 0
1591 4 27.075000000000003 41.51500000000001 50.540000000000006 0 0 0
1592 2 25.270000000000007 39.71000000000001 54.150000000000006 0 0 0
1593 4 25.270000000000007 41.51500000000001 55.955000000000005 0 0 0
1594 2 27.075000000000003 39.71000000000001 55.955000000000005 0 0 0
1595 5 27.075000000000003 41.51500000000001 54.150000000000006 0 0 0
1596 5 25.270000000000007 39.71000000000001 57.760000000000005 0 0 0
1599 3 27.075000000000003 41.51500000000001 57.760000000000005 0 0 0
1617 2 25.270000000000007 45.125 37.905 0 0 0
1618 1 27.075000000000003 43.32000000000001 37.905 0 0 0
1619 2 27.075000000000003 45.125 36.10000000000001 0 0 0
1620 2 25.270000000000007 43.32000000000001 39.71000000000001 0 0 0
1621 3 25.270000000000007 45.125 41.51500000000001 0 0 0
1622 3 27.075000000000003 43.32000000000001 41.51500000000001 0 0 0
1623 4 27.075000000000003 45.125 39.71000000000001 0 0 0
1624 1 25.270000000000007 43.32000000000001 43.32000000000001 0 0 0
1625 5 25.270000000000007 45.125 45.125 0 0 0
1626 3 27.075000000000003 43.32000000000001 45.125 0 0 0
1627 2 27.075000000000003 45.125 43.32000000000001 0 0 0
1628 4 25.270000000000007 43.32000000000001 46.93000000000001 0 0 0
1629 4 25.270000000000007 45.125 48.73500000000001 0 0 0
1630 5 27.075000000000003 43.32000000000001 48.73500000000001 0 0 0
1631 4 27.075000000000003 45.125 46.93000000000001 0 0 0
1632 2 25.270000000000007 43.32000000000001 50.540000000000006 0 0 0
1633 1 25.270000000000007 45.125 52.345 0 0 0
1634 3 27.075000000000003 43.32000000000001 52.345 0 0 0
1635 2 27.075000000000003 45.125 50.540000000000006 0 0 0
1636 4 25.270000000000007 43.32000000000001 54.150000000000006 0 0 0
1637 2 25.270000000000007 45.125 55.955000000000005 0 0 0
1638 2 27.075000000000003 43.32000000000001 55.955000000000005 0 0 0
1639 3 27.075000000000003 45.125 54.150000000000006 0 0 0
1640 3 25.270000000000007 43.32000000000001 57.760000000000005 0 0 0
1643 4 27.075000000000003 45.125 57.760000000000005 0 0 0
1665 1 27.075000000000003 46.93000000000001 34.29500000000001 0 0 0
1666 2 25.270000000000007 46.93000000000001 36.10000000000001 0 0 0
1667 4 25.270000000000007 48.73500000000001 37.905 0 0 0
1668 3 27.075000000000003 46.93000000000001 37.905 0 0 0
1669 1 27.075000000000003 48.73500000000001 36.10000000000001 0 0 0
1670 2 25.270000000000007 46.93000000000001 39.71000000000001 0 0 0
1671 1 25.270000000000007 48.73500000000001 41.51500000000001 0 0 0
1672 5 27.075000000000003 46.93000000000001 41.51500000000001 0 0 0