model_files/NiFeCrCoAl/NiFeCrCoAl_30000/NiFeCrCoAl_553/NiFeCrCoAl_553_fcc_29881_temp.data (written by ASE) 

29881 	 atoms 
5  atom types
0.0                     117  xlo xhi
0.0                     117  ylo yhi
0.0                     117  zlo zhi


Atoms 

     1   1                       0      55.955000000000005      55.955000000000005
     2   1      1.8049999999999999      54.150000000000006      55.955000000000005
     3   1      1.8049999999999999      55.955000000000005      54.150000000000006
     4   1                       0      55.955000000000005      59.565000000000005
     5   1      1.8049999999999999      54.150000000000006      59.565000000000005
     6   1      1.8049999999999999      55.955000000000005      57.760000000000005
     7   1      1.8049999999999999      55.955000000000005      61.370000000000005
     8   1                       0      59.565000000000005      55.955000000000005
     9   1      1.8049999999999999      57.760000000000005      55.955000000000005
    10   1      1.8049999999999999      59.565000000000005      54.150000000000006
    11   1                       0      57.760000000000005      57.760000000000005
    12   1                       0      59.565000000000005      59.565000000000005
    13   1      1.8049999999999999      57.760000000000005      59.565000000000005
    14   1      1.8049999999999999      59.565000000000005      57.760000000000005
    15   1      1.8049999999999999      59.565000000000005      61.370000000000005
    16   1      1.8049999999999999      61.370000000000005      55.955000000000005
    17   1      1.8049999999999999      61.370000000000005      59.565000000000005
    18   1      3.6099999999999999      52.344999999999999      55.955000000000005
    19   1                   5.415      50.540000000000006      55.955000000000005
    20   1                   5.415      52.344999999999999      54.150000000000006
    21   1      3.6099999999999999      52.344999999999999      59.565000000000005
    22   1                   5.415      50.540000000000006      59.565000000000005
    23   1                   5.415      52.344999999999999      57.760000000000005
    24   1                   5.415      52.344999999999999      61.370000000000005
    25   1      3.6099999999999999      55.955000000000005      52.344999999999999
    26   1                   5.415      54.150000000000006      52.344999999999999
    27   1                   5.415      55.955000000000005      50.540000000000006
    28   1      3.6099999999999999      54.150000000000006      54.150000000000006
    29   1      3.6099999999999999      55.955000000000005      55.955000000000005
    30   1                   5.415      54.150000000000006      55.955000000000005
    31   1                   5.415      55.955000000000005      54.150000000000006
    32   1      3.6099999999999999      54.150000000000006      57.760000000000005
    33   1      3.6099999999999999      55.955000000000005      59.565000000000005
    34   1                   5.415      54.150000000000006      59.565000000000005
    35   1                   5.415      55.955000000000005      57.760000000000005
    36   1      3.6099999999999999      54.150000000000006      61.370000000000005
    37   1      3.6099999999999999      55.955000000000005      63.175000000000026
    38   1                   5.415      54.150000000000006      63.175000000000026
    39   1                   5.415      55.955000000000005      61.370000000000005
    40   1                   5.415      55.955000000000005      64.980000000000004
    41   1      3.6099999999999999      59.565000000000005      52.344999999999999
    42   1                   5.415      57.760000000000005      52.344999999999999
    43   1                   5.415      59.565000000000005      50.540000000000006
    44   1      3.6099999999999999      57.760000000000005      54.150000000000006
    45   1      3.6099999999999999      59.565000000000005      55.955000000000005
    46   1                   5.415      57.760000000000005      55.955000000000005
    47   1                   5.415      59.565000000000005      54.150000000000006
    48   1      3.6099999999999999      57.760000000000005      57.760000000000005
    49   1      3.6099999999999999      59.565000000000005      59.565000000000005
    50   1                   5.415      57.760000000000005      59.565000000000005
    51   1                   5.415      59.565000000000005      57.760000000000005
    52   1      3.6099999999999999      57.760000000000005      61.370000000000005
    53   1      3.6099999999999999      59.565000000000005      63.175000000000026
    54   1                   5.415      57.760000000000005      63.175000000000026
    55   1                   5.415      59.565000000000005      61.370000000000005
    56   1                   5.415      59.565000000000005      64.980000000000004
    57   1                   5.415      61.370000000000005      52.344999999999999
    58   1      3.6099999999999999      61.370000000000005      54.150000000000006
    59   1      3.6099999999999999      63.175000000000026      55.955000000000005
    60   1                   5.415      61.370000000000005      55.955000000000005
    61   1                   5.415      63.175000000000026      54.150000000000006
    62   1      3.6099999999999999      61.370000000000005      57.760000000000005
    63   1      3.6099999999999999      63.175000000000026      59.565000000000005
    64   1                   5.415      61.370000000000005      59.565000000000005
    65   1                   5.415      63.175000000000026      57.760000000000005
    66   1      3.6099999999999999      61.370000000000005      61.370000000000005
    67   1                   5.415      61.370000000000005      63.175000000000026
    68   1                   5.415      63.175000000000026      61.370000000000005
    69   1                   5.415      64.980000000000004      55.955000000000005
    70   1                   5.415      64.980000000000004      59.565000000000005
    71   1      7.2199999999999998      48.735000000000007      55.955000000000005
    72   1      9.0249999999999986      46.930000000000007      55.955000000000005
    73   1      9.0249999999999986      48.735000000000007      54.150000000000006
    74   1      7.2199999999999998      48.735000000000007      59.565000000000005
    75   1      9.0249999999999986      46.930000000000007      59.565000000000005
    76   1      9.0249999999999986      48.735000000000007      57.760000000000005
    77   1      9.0249999999999986      48.735000000000007      61.370000000000005
    78   1      7.2199999999999998      52.344999999999999      52.344999999999999
    79   1      9.0249999999999986      50.540000000000006      52.344999999999999
    80   1      9.0249999999999986      52.344999999999999      50.540000000000006
    81   1      7.2199999999999998      50.540000000000006      54.150000000000006
    82   1      7.2199999999999998      52.344999999999999      55.955000000000005
    83   1      9.0249999999999986      50.540000000000006      55.955000000000005
    84   1      9.0249999999999986      52.344999999999999      54.150000000000006
    85   1      7.2199999999999998      50.540000000000006      57.760000000000005
    86   1      7.2199999999999998      52.344999999999999      59.565000000000005
    87   1      9.0249999999999986      50.540000000000006      59.565000000000005
    88   1      9.0249999999999986      52.344999999999999      57.760000000000005
    89   1      7.2199999999999998      50.540000000000006      61.370000000000005
    90   1      7.2199999999999998      52.344999999999999      63.175000000000026
    91   1      9.0249999999999986      50.540000000000006      63.175000000000026
    92   1      9.0249999999999986      52.344999999999999      61.370000000000005
    93   1      9.0249999999999986      52.344999999999999      64.980000000000004
    94   1      7.2199999999999998      55.955000000000005      48.735000000000007
    95   1      9.0249999999999986      54.150000000000006      48.735000000000007
    96   1      9.0249999999999986      55.955000000000005      46.930000000000007
    97   1      7.2199999999999998      54.150000000000006      50.540000000000006
    98   1      7.2199999999999998      55.955000000000005      52.344999999999999
    99   1      9.0249999999999986      54.150000000000006      52.344999999999999
   100   1      9.0249999999999986      55.955000000000005      50.540000000000006
   101   1      7.2199999999999998      54.150000000000006      54.150000000000006
   102   1      7.2199999999999998      55.955000000000005      55.955000000000005
   103   1      9.0249999999999986      54.150000000000006      55.955000000000005
   104   1      9.0249999999999986      55.955000000000005      54.150000000000006
   105   1      7.2199999999999998      54.150000000000006      57.760000000000005
   106   1      7.2199999999999998      55.955000000000005      59.565000000000005
   107   1      9.0249999999999986      54.150000000000006      59.565000000000005
   108   1      9.0249999999999986      55.955000000000005      57.760000000000005
   109   1      7.2199999999999998      54.150000000000006      61.370000000000005
   110   1      7.2199999999999998      55.955000000000005      63.175000000000026
   111   1      9.0249999999999986      54.150000000000006      63.175000000000026
   112   1      9.0249999999999986      55.955000000000005      61.370000000000005
   113   1      7.2199999999999998      54.150000000000006      64.980000000000004
   114   1      7.2199999999999998      55.955000000000005      66.785000000000011
   115   1      9.0249999999999986      54.150000000000006      66.785000000000011
   116   1      9.0249999999999986      55.955000000000005      64.980000000000004
   117   1      9.0249999999999986      55.955000000000005      68.590000000000018
   118   1      7.2199999999999998      59.565000000000005      48.735000000000007
   119   1      9.0249999999999986      57.760000000000005      48.735000000000007
   120   1      9.0249999999999986      59.565000000000005      46.930000000000007
   121   1      7.2199999999999998      57.760000000000005      50.540000000000006
   122   1      7.2199999999999998      59.565000000000005      52.344999999999999
   123   1      9.0249999999999986      57.760000000000005      52.344999999999999
   124   1      9.0249999999999986      59.565000000000005      50.540000000000006
   125   1      7.2199999999999998      57.760000000000005      54.150000000000006
   126   1      7.2199999999999998      59.565000000000005      55.955000000000005
   127   1      9.0249999999999986      57.760000000000005      55.955000000000005
   128   1      9.0249999999999986      59.565000000000005      54.150000000000006
   129   1      7.2199999999999998      57.760000000000005      57.760000000000005
   130   1      7.2199999999999998      59.565000000000005      59.565000000000005
   131   1      9.0249999999999986      57.760000000000005      59.565000000000005
   132   1      9.0249999999999986      59.565000000000005      57.760000000000005
   133   1      7.2199999999999998      57.760000000000005      61.370000000000005
   134   1      7.2199999999999998      59.565000000000005      63.175000000000026
   135   1      9.0249999999999986      57.760000000000005      63.175000000000026
   136   1      9.0249999999999986      59.565000000000005      61.370000000000005
   137   1      7.2199999999999998      57.760000000000005      64.980000000000004
   138   1      7.2199999999999998      59.565000000000005      66.785000000000011
   139   1      9.0249999999999986      57.760000000000005      66.785000000000011
   140   1      9.0249999999999986      59.565000000000005      64.980000000000004
   141   1      9.0249999999999986      59.565000000000005      68.590000000000018
   142   1      9.0249999999999986      61.370000000000005      48.735000000000007
   143   1      7.2199999999999998      61.370000000000005      50.540000000000006
   144   1      7.2199999999999998      63.175000000000026      52.344999999999999
   145   1      9.0249999999999986      61.370000000000005      52.344999999999999
   146   1      9.0249999999999986      63.175000000000026      50.540000000000006
   147   1      7.2199999999999998      61.370000000000005      54.150000000000006
   148   1      7.2199999999999998      63.175000000000026      55.955000000000005
   149   1      9.0249999999999986      61.370000000000005      55.955000000000005
   150   1      9.0249999999999986      63.175000000000026      54.150000000000006
   151   1      7.2199999999999998      61.370000000000005      57.760000000000005
   152   1      7.2199999999999998      63.175000000000026      59.565000000000005
   153   1      9.0249999999999986      61.370000000000005      59.565000000000005
   154   1      9.0249999999999986      63.175000000000026      57.760000000000005
   155   1      7.2199999999999998      61.370000000000005      61.370000000000005
   156   1      7.2199999999999998      63.175000000000026      63.175000000000026
   157   1      9.0249999999999986      61.370000000000005      63.175000000000026
   158   1      9.0249999999999986      63.175000000000026      61.370000000000005
   159   1      7.2199999999999998      61.370000000000005      64.980000000000004
   160   1      9.0249999999999986      61.370000000000005      66.785000000000011
   161   1      9.0249999999999986      63.175000000000026      64.980000000000004
   162   1      9.0249999999999986      64.980000000000004      52.344999999999999
   163   1      7.2199999999999998      64.980000000000004      54.150000000000006
   164   1      7.2199999999999998      66.785000000000011      55.955000000000005
   165   1      9.0249999999999986      64.980000000000004      55.955000000000005
   166   1      9.0249999999999986      66.785000000000011      54.150000000000006
   167   1      7.2199999999999998      64.980000000000004      57.760000000000005
   168   1      7.2199999999999998      66.785000000000011      59.565000000000005
   169   1      9.0249999999999986      64.980000000000004      59.565000000000005
   170   1      9.0249999999999986      66.785000000000011      57.760000000000005
   171   1      7.2199999999999998      64.980000000000004      61.370000000000005
   172   1      9.0249999999999986      64.980000000000004      63.175000000000026
   173   1      9.0249999999999986      66.785000000000011      61.370000000000005
   174   1      9.0249999999999986      68.590000000000018      55.955000000000005
   175   1      9.0249999999999986      68.590000000000018      59.565000000000005
   176   1                   10.83                  45.125      55.955000000000005
   177   1                  12.635      43.320000000000007      55.955000000000005
   178   1                  12.635                  45.125      54.150000000000006
   179   1                   10.83                  45.125      59.565000000000005
   180   1                  12.635      43.320000000000007      59.565000000000005
   181   1                  12.635                  45.125      57.760000000000005
   182   1                  12.635                  45.125      61.370000000000005
   183   1                   10.83      48.735000000000007      52.344999999999999
   184   1                  12.635      46.930000000000007      52.344999999999999
   185   1                  12.635      48.735000000000007      50.540000000000006
   186   1                   10.83      46.930000000000007      54.150000000000006
   187   1                   10.83      48.735000000000007      55.955000000000005
   188   1                  12.635      46.930000000000007      55.955000000000005
   189   1                  12.635      48.735000000000007      54.150000000000006
   190   1                   10.83      46.930000000000007      57.760000000000005
   191   1                   10.83      48.735000000000007      59.565000000000005
   192   1                  12.635      46.930000000000007      59.565000000000005
   193   1                  12.635      48.735000000000007      57.760000000000005
   194   1                   10.83      46.930000000000007      61.370000000000005
   195   1                   10.83      48.735000000000007      63.175000000000026
   196   1                  12.635      46.930000000000007      63.175000000000026
   197   1                  12.635      48.735000000000007      61.370000000000005
   198   1                  12.635      48.735000000000007      64.980000000000004
   199   1                   10.83      52.344999999999999      48.735000000000007
   200   1                  12.635      50.540000000000006      48.735000000000007
   201   1                  12.635      52.344999999999999      46.930000000000007
   202   1                   10.83      50.540000000000006      50.540000000000006
   203   1                   10.83      52.344999999999999      52.344999999999999
   204   1                  12.635      50.540000000000006      52.344999999999999
   205   1                  12.635      52.344999999999999      50.540000000000006
   206   1                   10.83      50.540000000000006      54.150000000000006
   207   1                   10.83      52.344999999999999      55.955000000000005
   208   1                  12.635      50.540000000000006      55.955000000000005
   209   1                  12.635      52.344999999999999      54.150000000000006
   210   1                   10.83      50.540000000000006      57.760000000000005
   211   1                   10.83      52.344999999999999      59.565000000000005
   212   1                  12.635      50.540000000000006      59.565000000000005
   213   1                  12.635      52.344999999999999      57.760000000000005
   214   1                   10.83      50.540000000000006      61.370000000000005
   215   1                   10.83      52.344999999999999      63.175000000000026
   216   1                  12.635      50.540000000000006      63.175000000000026
   217   1                  12.635      52.344999999999999      61.370000000000005
   218   1                   10.83      50.540000000000006      64.980000000000004
   219   1                   10.83      52.344999999999999      66.785000000000011
   220   1                  12.635      50.540000000000006      66.785000000000011
   221   1                  12.635      52.344999999999999      64.980000000000004
   222   1                  12.635      52.344999999999999      68.590000000000018
   223   1                   10.83      55.955000000000005                  45.125
   224   1                  12.635      54.150000000000006                  45.125
   225   1                  12.635      55.955000000000005      43.320000000000007
   226   1                   10.83      54.150000000000006      46.930000000000007
   227   1                   10.83      55.955000000000005      48.735000000000007
   228   1                  12.635      54.150000000000006      48.735000000000007
   229   1                  12.635      55.955000000000005      46.930000000000007
   230   1                   10.83      54.150000000000006      50.540000000000006
   231   1                   10.83      55.955000000000005      52.344999999999999
   232   1                  12.635      54.150000000000006      52.344999999999999
   233   1                  12.635      55.955000000000005      50.540000000000006
   234   1                   10.83      54.150000000000006      54.150000000000006
   235   1                   10.83      55.955000000000005      55.955000000000005
   236   1                  12.635      54.150000000000006      55.955000000000005
   237   1                  12.635      55.955000000000005      54.150000000000006
   238   1                   10.83      54.150000000000006      57.760000000000005
   239   1                   10.83      55.955000000000005      59.565000000000005
   240   1                  12.635      54.150000000000006      59.565000000000005
   241   1                  12.635      55.955000000000005      57.760000000000005
   242   1                   10.83      54.150000000000006      61.370000000000005
   243   1                   10.83      55.955000000000005      63.175000000000026
   244   1                  12.635      54.150000000000006      63.175000000000026
   245   1                  12.635      55.955000000000005      61.370000000000005
   246   1                   10.83      54.150000000000006      64.980000000000004
   247   1                   10.83      55.955000000000005      66.785000000000011
   248   1                  12.635      54.150000000000006      66.785000000000011
   249   1                  12.635      55.955000000000005      64.980000000000004
   250   1                   10.83      54.150000000000006      68.590000000000018
   251   1                   10.83      55.955000000000005       70.39500000000001
   252   1                  12.635      54.150000000000006       70.39500000000001
   253   1                  12.635      55.955000000000005      68.590000000000018
   254   1                  12.635      55.955000000000005      72.200000000000017
   255   1                   10.83      59.565000000000005                  45.125
   256   1                  12.635      57.760000000000005                  45.125
   257   1                  12.635      59.565000000000005      43.320000000000007
   258   1                   10.83      57.760000000000005      46.930000000000007
   259   1                   10.83      59.565000000000005      48.735000000000007
   260   1                  12.635      57.760000000000005      48.735000000000007
   261   1                  12.635      59.565000000000005      46.930000000000007
   262   1                   10.83      57.760000000000005      50.540000000000006
   263   1                   10.83      59.565000000000005      52.344999999999999
   264   1                  12.635      57.760000000000005      52.344999999999999
   265   1                  12.635      59.565000000000005      50.540000000000006
   266   1                   10.83      57.760000000000005      54.150000000000006
   267   1                   10.83      59.565000000000005      55.955000000000005
   268   1                  12.635      57.760000000000005      55.955000000000005
   269   1                  12.635      59.565000000000005      54.150000000000006
   270   1                   10.83      57.760000000000005      57.760000000000005
   271   1                   10.83      59.565000000000005      59.565000000000005
   272   1                  12.635      57.760000000000005      59.565000000000005
   273   1                  12.635      59.565000000000005      57.760000000000005
   274   1                   10.83      57.760000000000005      61.370000000000005
   275   1                   10.83      59.565000000000005      63.175000000000026
   276   1                  12.635      57.760000000000005      63.175000000000026
   277   1                  12.635      59.565000000000005      61.370000000000005
   278   1                   10.83      57.760000000000005      64.980000000000004
   279   1                   10.83      59.565000000000005      66.785000000000011
   280   1                  12.635      57.760000000000005      66.785000000000011
   281   1                  12.635      59.565000000000005      64.980000000000004
   282   1                   10.83      57.760000000000005      68.590000000000018
   283   1                   10.83      59.565000000000005       70.39500000000001
   284   1                  12.635      57.760000000000005       70.39500000000001
   285   1                  12.635      59.565000000000005      68.590000000000018
   286   1                  12.635      59.565000000000005      72.200000000000017
   287   1                  12.635      61.370000000000005                  45.125
   288   1                   10.83      61.370000000000005      46.930000000000007
   289   1                   10.83      63.175000000000026      48.735000000000007
   290   1                  12.635      61.370000000000005      48.735000000000007
   291   1                  12.635      63.175000000000026      46.930000000000007
   292   1                   10.83      61.370000000000005      50.540000000000006
   293   1                   10.83      63.175000000000026      52.344999999999999
   294   1                  12.635      61.370000000000005      52.344999999999999
   295   1                  12.635      63.175000000000026      50.540000000000006
   296   1                   10.83      61.370000000000005      54.150000000000006
   297   1                   10.83      63.175000000000026      55.955000000000005
   298   1                  12.635      61.370000000000005      55.955000000000005
   299   1                  12.635      63.175000000000026      54.150000000000006
   300   1                   10.83      61.370000000000005      57.760000000000005
   301   1                   10.83      63.175000000000026      59.565000000000005
   302   1                  12.635      61.370000000000005      59.565000000000005
   303   1                  12.635      63.175000000000026      57.760000000000005
   304   1                   10.83      61.370000000000005      61.370000000000005
   305   1                   10.83      63.175000000000026      63.175000000000026
   306   1                  12.635      61.370000000000005      63.175000000000026
   307   1                  12.635      63.175000000000026      61.370000000000005
   308   1                   10.83      61.370000000000005      64.980000000000004
   309   1                   10.83      63.175000000000026      66.785000000000011
   310   1                  12.635      61.370000000000005      66.785000000000011
   311   1                  12.635      63.175000000000026      64.980000000000004
   312   1                   10.83      61.370000000000005      68.590000000000018
   313   1                  12.635      61.370000000000005       70.39500000000001
   314   1                  12.635      63.175000000000026      68.590000000000018
   315   1                  12.635      64.980000000000004      48.735000000000007
   316   1                   10.83      64.980000000000004      50.540000000000006
   317   1                   10.83      66.785000000000011      52.344999999999999
   318   1                  12.635      64.980000000000004      52.344999999999999
   319   1                  12.635      66.785000000000011      50.540000000000006
   320   1                   10.83      64.980000000000004      54.150000000000006
   321   1                   10.83      66.785000000000011      55.955000000000005
   322   1                  12.635      64.980000000000004      55.955000000000005
   323   1                  12.635      66.785000000000011      54.150000000000006
   324   1                   10.83      64.980000000000004      57.760000000000005
   325   1                   10.83      66.785000000000011      59.565000000000005
   326   1                  12.635      64.980000000000004      59.565000000000005
   327   1                  12.635      66.785000000000011      57.760000000000005
   328   1                   10.83      64.980000000000004      61.370000000000005
   329   1                   10.83      66.785000000000011      63.175000000000026
   330   1                  12.635      64.980000000000004      63.175000000000026
   331   1                  12.635      66.785000000000011      61.370000000000005
   332   1                   10.83      64.980000000000004      64.980000000000004
   333   1                  12.635      64.980000000000004      66.785000000000011
   334   1                  12.635      66.785000000000011      64.980000000000004
   335   1                  12.635      68.590000000000018      52.344999999999999
   336   1                   10.83      68.590000000000018      54.150000000000006
   337   1                   10.83       70.39500000000001      55.955000000000005
   338   1                  12.635      68.590000000000018      55.955000000000005
   339   1                  12.635       70.39500000000001      54.150000000000006
   340   1                   10.83      68.590000000000018      57.760000000000005
   341   1                   10.83       70.39500000000001      59.565000000000005
   342   1                  12.635      68.590000000000018      59.565000000000005
   343   1                  12.635       70.39500000000001      57.760000000000005
   344   1                   10.83      68.590000000000018      61.370000000000005
   345   1                  12.635      68.590000000000018      63.175000000000026
   346   1                  12.635       70.39500000000001      61.370000000000005
   347   1                  12.635      72.200000000000017      55.955000000000005
   348   1                  12.635      72.200000000000017      59.565000000000005
   349   1      14.440000000000007      41.515000000000008      55.955000000000005
   350   1      16.245000000000001      39.710000000000008      55.955000000000005
   351   1      16.245000000000001      41.515000000000008      54.150000000000006
   352   1      14.440000000000007      41.515000000000008      59.565000000000005
   353   1      16.245000000000001      39.710000000000008      59.565000000000005
   354   1      16.245000000000001      41.515000000000008      57.760000000000005
   355   1      16.245000000000001      41.515000000000008      61.370000000000005
   356   1      16.245000000000001                  45.125      46.930000000000007
   357   1      14.440000000000007                  45.125      52.344999999999999
   358   1      16.245000000000001      43.320000000000007      52.344999999999999