model_files/Fe/Fe_30000/Fe_530/data.Fe_530_fcc_30145 (written by ASE) 

30145 	 atoms 
1  atom types
0.0                      94  xlo xhi
0.0                      94  ylo yhi
0.0                      94  zlo zhi


Atoms 

     1   1  1.4210854715202004e-14      45.920000000000009      45.920000000000009
     2   1  1.4210854715202004e-14      45.920000000000009      48.790000000000006
     3   1  1.4210854715202004e-14      48.790000000000006      45.920000000000009
     4   1  1.4210854715202004e-14      48.790000000000006      48.790000000000006
     5   1      2.8700000000000117      43.050000000000011      43.050000000000011
     6   1      2.8700000000000117      43.050000000000011      45.920000000000009
     7   1      2.8700000000000117      43.050000000000011      48.790000000000006
     8   1      2.8700000000000117      43.050000000000011      51.660000000000011
     9   1      2.8700000000000117      45.920000000000009      43.050000000000011
    10   1      1.4350000000000094      44.485000000000007      44.485000000000007
    11   1      2.8700000000000117      45.920000000000009      45.920000000000009
    12   1      1.4350000000000094      44.485000000000007      47.355000000000004
    13   1      2.8700000000000117      45.920000000000009      48.790000000000006
    14   1      1.4350000000000094      44.485000000000007      50.225000000000009
    15   1      2.8700000000000117      45.920000000000009      51.660000000000011
    16   1      2.8700000000000117      48.790000000000006      43.050000000000011
    17   1      1.4350000000000094      47.355000000000004      44.485000000000007
    18   1      2.8700000000000117      48.790000000000006      45.920000000000009
    19   1      1.4350000000000094      47.355000000000004      47.355000000000004
    20   1      2.8700000000000117      48.790000000000006      48.790000000000006
    21   1      1.4350000000000094      47.355000000000004      50.225000000000009
    22   1      2.8700000000000117      48.790000000000006      51.660000000000011
    23   1      2.8700000000000117      51.660000000000011      43.050000000000011
    24   1      1.4350000000000094      50.225000000000009      44.485000000000007
    25   1      2.8700000000000117      51.660000000000011      45.920000000000009
    26   1      1.4350000000000094      50.225000000000009      47.355000000000004
    27   1      2.8700000000000117      51.660000000000011      48.790000000000006
    28   1      1.4350000000000094      50.225000000000009      50.225000000000009
    29   1      2.8700000000000117      51.660000000000011      51.660000000000011
    30   1      5.7400000000000091      37.310000000000009      37.310000000000009
    31   1      5.7400000000000091      37.310000000000009      40.180000000000007
    32   1      5.7400000000000091      37.310000000000009      43.050000000000011
    33   1      5.7400000000000091      37.310000000000009      45.920000000000009
    34   1      5.7400000000000091      37.310000000000009      48.790000000000006
    35   1      5.7400000000000091      37.310000000000009      51.660000000000011
    36   1      5.7400000000000091      37.310000000000009      54.530000000000008
    37   1      5.7400000000000091      37.310000000000009      57.400000000000006
    38   1      5.7400000000000091      40.180000000000007      37.310000000000009
    39   1      4.3050000000000139      38.745000000000005      38.745000000000005
    40   1      5.7400000000000091      40.180000000000007      40.180000000000007
    41   1      4.3050000000000139      38.745000000000005      41.615000000000009
    42   1      5.7400000000000091      40.180000000000007      43.050000000000011
    43   1      4.3050000000000139      38.745000000000005      44.485000000000007
    44   1      5.7400000000000091      40.180000000000007      45.920000000000009
    45   1      4.3050000000000139      38.745000000000005      47.355000000000004
    46   1      5.7400000000000091      40.180000000000007      48.790000000000006
    47   1      4.3050000000000139      38.745000000000005      50.225000000000009
    48   1      5.7400000000000091      40.180000000000007      51.660000000000011
    49   1      4.3050000000000139      38.745000000000005      53.095000000000006
    50   1      5.7400000000000091      40.180000000000007      54.530000000000008
    51   1      4.3050000000000139      38.745000000000005      55.964999999999996
    52   1      5.7400000000000091      40.180000000000007      57.400000000000006
    53   1      5.7400000000000091      43.050000000000011      37.310000000000009
    54   1      4.3050000000000139      41.615000000000009      38.745000000000005
    55   1      5.7400000000000091      43.050000000000011      40.180000000000007
    56   1      4.3050000000000139      41.615000000000009      41.615000000000009
    57   1      5.7400000000000091      43.050000000000011      43.050000000000011
    58   1      4.3050000000000139      41.615000000000009      44.485000000000007
    59   1      5.7400000000000091      43.050000000000011      45.920000000000009
    60   1      4.3050000000000139      41.615000000000009      47.355000000000004
    61   1      5.7400000000000091      43.050000000000011      48.790000000000006
    62   1      4.3050000000000139      41.615000000000009      50.225000000000009
    63   1      5.7400000000000091      43.050000000000011      51.660000000000011
    64   1      4.3050000000000139      41.615000000000009      53.095000000000006
    65   1      5.7400000000000091      43.050000000000011      54.530000000000008
    66   1      4.3050000000000139      41.615000000000009      55.964999999999996
    67   1      5.7400000000000091      43.050000000000011      57.400000000000006
    68   1      5.7400000000000091      45.920000000000009      37.310000000000009
    69   1      4.3050000000000139      44.485000000000007      38.745000000000005
    70   1      5.7400000000000091      45.920000000000009      40.180000000000007
    71   1      4.3050000000000139      44.485000000000007      41.615000000000009
    72   1      5.7400000000000091      45.920000000000009      43.050000000000011
    73   1      4.3050000000000139      44.485000000000007      44.485000000000007
    74   1      5.7400000000000091      45.920000000000009      45.920000000000009
    75   1      4.3050000000000139      44.485000000000007      47.355000000000004
    76   1      5.7400000000000091      45.920000000000009      48.790000000000006
    77   1      4.3050000000000139      44.485000000000007      50.225000000000009
    78   1      5.7400000000000091      45.920000000000009      51.660000000000011
    79   1      4.3050000000000139      44.485000000000007      53.095000000000006
    80   1      5.7400000000000091      45.920000000000009      54.530000000000008
    81   1      4.3050000000000139      44.485000000000007      55.964999999999996
    82   1      5.7400000000000091      45.920000000000009      57.400000000000006
    83   1      5.7400000000000091      48.790000000000006      37.310000000000009
    84   1      4.3050000000000139      47.355000000000004      38.745000000000005
    85   1      5.7400000000000091      48.790000000000006      40.180000000000007
    86   1      4.3050000000000139      47.355000000000004      41.615000000000009
    87   1      5.7400000000000091      48.790000000000006      43.050000000000011
    88   1      4.3050000000000139      47.355000000000004      44.485000000000007
    89   1      5.7400000000000091      48.790000000000006      45.920000000000009
    90   1      4.3050000000000139      47.355000000000004      47.355000000000004
    91   1      5.7400000000000091      48.790000000000006      48.790000000000006
    92   1      4.3050000000000139      47.355000000000004      50.225000000000009
    93   1      5.7400000000000091      48.790000000000006      51.660000000000011
    94   1      4.3050000000000139      47.355000000000004      53.095000000000006
    95   1      5.7400000000000091      48.790000000000006      54.530000000000008
    96   1      4.3050000000000139      47.355000000000004      55.964999999999996
    97   1      5.7400000000000091      48.790000000000006      57.400000000000006
    98   1      5.7400000000000091      51.660000000000011      37.310000000000009
    99   1      4.3050000000000139      50.225000000000009      38.745000000000005
   100   1      5.7400000000000091      51.660000000000011      40.180000000000007
   101   1      4.3050000000000139      50.225000000000009      41.615000000000009
   102   1      5.7400000000000091      51.660000000000011      43.050000000000011
   103   1      4.3050000000000139      50.225000000000009      44.485000000000007
   104   1      5.7400000000000091      51.660000000000011      45.920000000000009
   105   1      4.3050000000000139      50.225000000000009      47.355000000000004
   106   1      5.7400000000000091      51.660000000000011      48.790000000000006
   107   1      4.3050000000000139      50.225000000000009      50.225000000000009
   108   1      5.7400000000000091      51.660000000000011      51.660000000000011
   109   1      4.3050000000000139      50.225000000000009      53.095000000000006
   110   1      5.7400000000000091      51.660000000000011      54.530000000000008
   111   1      4.3050000000000139      50.225000000000009      55.964999999999996
   112   1      5.7400000000000091      51.660000000000011      57.400000000000006
   113   1      5.7400000000000091      54.530000000000008      37.310000000000009
   114   1      4.3050000000000139      53.095000000000006      38.745000000000005
   115   1      5.7400000000000091      54.530000000000008      40.180000000000007
   116   1      4.3050000000000139      53.095000000000006      41.615000000000009
   117   1      5.7400000000000091      54.530000000000008      43.050000000000011
   118   1      4.3050000000000139      53.095000000000006      44.485000000000007
   119   1      5.7400000000000091      54.530000000000008      45.920000000000009
   120   1      4.3050000000000139      53.095000000000006      47.355000000000004
   121   1      5.7400000000000091      54.530000000000008      48.790000000000006
   122   1      4.3050000000000139      53.095000000000006      50.225000000000009
   123   1      5.7400000000000091      54.530000000000008      51.660000000000011
   124   1      4.3050000000000139      53.095000000000006      53.095000000000006
   125   1      5.7400000000000091      54.530000000000008      54.530000000000008
   126   1      4.3050000000000139      53.095000000000006      55.964999999999996
   127   1      5.7400000000000091      54.530000000000008      57.400000000000006
   128   1      5.7400000000000091      57.400000000000006      37.310000000000009
   129   1      4.3050000000000139      55.964999999999996      38.745000000000005
   130   1      5.7400000000000091      57.400000000000006      40.180000000000007
   131   1      4.3050000000000139      55.964999999999996      41.615000000000009
   132   1      5.7400000000000091      57.400000000000006      43.050000000000011
   133   1      4.3050000000000139      55.964999999999996      44.485000000000007
   134   1      5.7400000000000091      57.400000000000006      45.920000000000009
   135   1      4.3050000000000139      55.964999999999996      47.355000000000004
   136   1      5.7400000000000091      57.400000000000006      48.790000000000006
   137   1      4.3050000000000139      55.964999999999996      50.225000000000009
   138   1      5.7400000000000091      57.400000000000006      51.660000000000011
   139   1      4.3050000000000139      55.964999999999996      53.095000000000006
   140   1      5.7400000000000091      57.400000000000006      54.530000000000008
   141   1      4.3050000000000139      55.964999999999996      55.964999999999996
   142   1      5.7400000000000091      57.400000000000006      57.400000000000006
   143   1      8.6100000000000136      31.570000000000007      31.570000000000007
   144   1      8.6100000000000136      31.570000000000007      34.440000000000012
   145   1      8.6100000000000136      31.570000000000007      37.310000000000009
   146   1      8.6100000000000136      31.570000000000007      40.180000000000007
   147   1      8.6100000000000136      31.570000000000007      43.050000000000011
   148   1      8.6100000000000136      31.570000000000007      45.920000000000009
   149   1      8.6100000000000136      31.570000000000007      48.790000000000006
   150   1      8.6100000000000136      31.570000000000007      51.660000000000011
   151   1      8.6100000000000136      31.570000000000007      54.530000000000008
   152   1      8.6100000000000136      31.570000000000007      57.400000000000006
   153   1      8.6100000000000136      31.570000000000007       60.27000000000001
   154   1      8.6100000000000136      31.570000000000007      63.140000000000001
   155   1      8.6100000000000136      34.440000000000012      31.570000000000007
   156   1      8.6100000000000136      34.440000000000012      34.440000000000012
   157   1      8.6100000000000136      34.440000000000012      37.310000000000009
   158   1      8.6100000000000136      34.440000000000012      40.180000000000007
   159   1      8.6100000000000136      34.440000000000012      43.050000000000011
   160   1      8.6100000000000136      34.440000000000012      45.920000000000009
   161   1      8.6100000000000136      34.440000000000012      48.790000000000006
   162   1      8.6100000000000136      34.440000000000012      51.660000000000011
   163   1      8.6100000000000136      34.440000000000012      54.530000000000008
   164   1      8.6100000000000136      34.440000000000012      57.400000000000006
   165   1      8.6100000000000136      34.440000000000012       60.27000000000001
   166   1      8.6100000000000136      34.440000000000012      63.140000000000001
   167   1      8.6100000000000136      37.310000000000009      31.570000000000007
   168   1      8.6100000000000136      37.310000000000009      34.440000000000012
   169   1      7.1750000000000114      35.875000000000007      35.875000000000007
   170   1      8.6100000000000136      37.310000000000009      37.310000000000009
   171   1      7.1750000000000114      35.875000000000007      38.745000000000005
   172   1      8.6100000000000136      37.310000000000009      40.180000000000007
   173   1      7.1750000000000114      35.875000000000007      41.615000000000009
   174   1      8.6100000000000136      37.310000000000009      43.050000000000011
   175   1      7.1750000000000114      35.875000000000007      44.485000000000007
   176   1      8.6100000000000136      37.310000000000009      45.920000000000009
   177   1      7.1750000000000114      35.875000000000007      47.355000000000004
   178   1      8.6100000000000136      37.310000000000009      48.790000000000006
   179   1      7.1750000000000114      35.875000000000007      50.225000000000009
   180   1      8.6100000000000136      37.310000000000009      51.660000000000011
   181   1      7.1750000000000114      35.875000000000007      53.095000000000006
   182   1      8.6100000000000136      37.310000000000009      54.530000000000008
   183   1      7.1750000000000114      35.875000000000007      55.964999999999996
   184   1      8.6100000000000136      37.310000000000009      57.400000000000006
   185   1      7.1750000000000114      35.875000000000007      58.835000000000015
   186   1      8.6100000000000136      37.310000000000009       60.27000000000001
   187   1      8.6100000000000136      37.310000000000009      63.140000000000001
   188   1      8.6100000000000136      40.180000000000007      31.570000000000007
   189   1      8.6100000000000136      40.180000000000007      34.440000000000012
   190   1      7.1750000000000114      38.745000000000005      35.875000000000007
   191   1      8.6100000000000136      40.180000000000007      37.310000000000009
   192   1      7.1750000000000114      38.745000000000005      38.745000000000005
   193   1      8.6100000000000136      40.180000000000007      40.180000000000007
   194   1      7.1750000000000114      38.745000000000005      41.615000000000009
   195   1      8.6100000000000136      40.180000000000007      43.050000000000011
   196   1      7.1750000000000114      38.745000000000005      44.485000000000007
   197   1      8.6100000000000136      40.180000000000007      45.920000000000009
   198   1      7.1750000000000114      38.745000000000005      47.355000000000004
   199   1      8.6100000000000136      40.180000000000007      48.790000000000006
   200   1      7.1750000000000114      38.745000000000005      50.225000000000009
   201   1      8.6100000000000136      40.180000000000007      51.660000000000011
   202   1      7.1750000000000114      38.745000000000005      53.095000000000006
   203   1      8.6100000000000136      40.180000000000007      54.530000000000008
   204   1      7.1750000000000114      38.745000000000005      55.964999999999996
   205   1      8.6100000000000136      40.180000000000007      57.400000000000006
   206   1      7.1750000000000114      38.745000000000005      58.835000000000015
   207   1      8.6100000000000136      40.180000000000007       60.27000000000001
   208   1      8.6100000000000136      40.180000000000007      63.140000000000001
   209   1      8.6100000000000136      43.050000000000011      31.570000000000007
   210   1      8.6100000000000136      43.050000000000011      34.440000000000012
   211   1      7.1750000000000114      41.615000000000009      35.875000000000007
   212   1      8.6100000000000136      43.050000000000011      37.310000000000009
   213   1      7.1750000000000114      41.615000000000009      38.745000000000005
   214   1      8.6100000000000136      43.050000000000011      40.180000000000007
   215   1      7.1750000000000114      41.615000000000009      41.615000000000009
   216   1      8.6100000000000136      43.050000000000011      43.050000000000011
   217   1      7.1750000000000114      41.615000000000009      44.485000000000007
   218   1      8.6100000000000136      43.050000000000011      45.920000000000009
   219   1      7.1750000000000114      41.615000000000009      47.355000000000004
   220   1      8.6100000000000136      43.050000000000011      48.790000000000006
   221   1      7.1750000000000114      41.615000000000009      50.225000000000009
   222   1      8.6100000000000136      43.050000000000011      51.660000000000011
   223   1      7.1750000000000114      41.615000000000009      53.095000000000006
   224   1      8.6100000000000136      43.050000000000011      54.530000000000008
   225   1      7.1750000000000114      41.615000000000009      55.964999999999996
   226   1      8.6100000000000136      43.050000000000011      57.400000000000006
   227   1      7.1750000000000114      41.615000000000009      58.835000000000015
   228   1      8.6100000000000136      43.050000000000011       60.27000000000001
   229   1      8.6100000000000136      43.050000000000011      63.140000000000001
   230   1      8.6100000000000136      45.920000000000009      31.570000000000007
   231   1      8.6100000000000136      45.920000000000009      34.440000000000012
   232   1      7.1750000000000114      44.485000000000007      35.875000000000007
   233   1      8.6100000000000136      45.920000000000009      37.310000000000009
   234   1      7.1750000000000114      44.485000000000007      38.745000000000005
   235   1      8.6100000000000136      45.920000000000009      40.180000000000007
   236   1      7.1750000000000114      44.485000000000007      41.615000000000009
   237   1      8.6100000000000136      45.920000000000009      43.050000000000011
   238   1      7.1750000000000114      44.485000000000007      44.485000000000007
   239   1      8.6100000000000136      45.920000000000009      45.920000000000009
   240   1      7.1750000000000114      44.485000000000007      47.355000000000004
   241   1      8.6100000000000136      45.920000000000009      48.790000000000006
   242   1      7.1750000000000114      44.485000000000007      50.225000000000009
   243   1      8.6100000000000136      45.920000000000009      51.660000000000011
   244   1      7.1750000000000114      44.485000000000007      53.095000000000006
   245   1      8.6100000000000136      45.920000000000009      54.530000000000008
   246   1      7.1750000000000114      44.485000000000007      55.964999999999996
   247   1      8.6100000000000136      45.920000000000009      57.400000000000006
   248   1      7.1750000000000114      44.485000000000007      58.835000000000015
   249   1      8.6100000000000136      45.920000000000009       60.27000000000001
   250   1      8.6100000000000136      45.920000000000009      63.140000000000001
   251   1      8.6100000000000136      48.790000000000006      31.570000000000007
   252   1      8.6100000000000136      48.790000000000006      34.440000000000012
   253   1      7.1750000000000114      47.355000000000004      35.875000000000007
   254   1      8.6100000000000136      48.790000000000006      37.310000000000009
   255   1      7.1750000000000114      47.355000000000004      38.745000000000005
   256   1      8.6100000000000136      48.790000000000006      40.180000000000007
   257   1      7.1750000000000114      47.355000000000004      41.615000000000009
   258   1      8.6100000000000136      48.790000000000006      43.050000000000011
   259   1      7.1750000000000114      47.355000000000004      44.485000000000007
   260   1      8.6100000000000136      48.790000000000006      45.920000000000009
   261   1      7.1750000000000114      47.355000000000004      47.355000000000004
   262   1      8.6100000000000136      48.790000000000006      48.790000000000006
   263   1      7.1750000000000114      47.355000000000004      50.225000000000009
   264   1      8.6100000000000136      48.790000000000006      51.660000000000011
   265   1      7.1750000000000114      47.355000000000004      53.095000000000006
   266   1      8.6100000000000136      48.790000000000006      54.530000000000008
   267   1      7.1750000000000114      47.355000000000004      55.964999999999996
   268   1      8.6100000000000136      48.790000000000006      57.400000000000006
   269   1      7.1750000000000114      47.355000000000004      58.835000000000015
   270   1      8.6100000000000136      48.790000000000006       60.27000000000001
   271   1      8.6100000000000136      48.790000000000006      63.140000000000001
   272   1      8.6100000000000136      51.660000000000011      31.570000000000007
   273   1      8.6100000000000136      51.660000000000011      34.440000000000012
   274   1      7.1750000000000114      50.225000000000009      35.875000000000007
   275   1      8.6100000000000136      51.660000000000011      37.310000000000009
   276   1      7.1750000000000114      50.225000000000009      38.745000000000005
   277   1      8.6100000000000136      51.660000000000011      40.180000000000007
   278   1      7.1750000000000114      50.225000000000009      41.615000000000009
   279   1      8.6100000000000136      51.660000000000011      43.050000000000011
   280   1      7.1750000000000114      50.225000000000009      44.485000000000007
   281   1      8.6100000000000136      51.660000000000011      45.920000000000009
   282   1      7.1750000000000114      50.225000000000009      47.355000000000004
   283   1      8.6100000000000136      51.660000000000011      48.790000000000006
   284   1      7.1750000000000114      50.225000000000009      50.225000000000009
   285   1      8.6100000000000136      51.660000000000011      51.660000000000011
   286   1      7.1750000000000114      50.225000000000009      53.095000000000006
   287   1      8.6100000000000136      51.660000000000011      54.530000000000008
   288   1      7.1750000000000114      50.225000000000009      55.964999999999996
   289   1      8.6100000000000136      51.660000000000011      57.400000000000006
   290   1      7.1750000000000114      50.225000000000009      58.835000000000015
   291   1      8.6100000000000136      51.660000000000011       60.27000000000001
   292   1      8.6100000000000136      51.660000000000011      63.140000000000001
   293   1      8.6100000000000136      54.530000000000008      31.570000000000007
   294   1      8.6100000000000136      54.530000000000008      34.440000000000012
   295   1      7.1750000000000114      53.095000000000006      35.875000000000007
   296   1      8.6100000000000136      54.530000000000008      37.310000000000009
   297   1      7.1750000000000114      53.095000000000006      38.745000000000005
   298   1      8.6100000000000136      54.530000000000008      40.180000000000007
   299   1      7.1750000000000114      53.095000000000006      41.615000000000009
   300   1      8.6100000000000136      54.530000000000008      43.050000000000011
   301   1      7.1750000000000114      53.095000000000006      44.485000000000007
   302   1      8.6100000000000136      54.530000000000008      45.920000000000009
   303   1      7.1750000000000114      53.095000000000006      47.355000000000004
   304   1      8.6100000000000136      54.530000000000008      48.790000000000006
   305   1      7.1750000000000114      53.095000000000006      50.225000000000009
   306   1      8.6100000000000136      54.530000000000008      51.660000000000011
   307   1      7.1750000000000114      53.095000000000006      53.095000000000006
   308   1      8.6100000000000136      54.530000000000008      54.530000000000008
   309   1      7.1750000000000114      53.095000000000006      55.964999999999996
   310   1      8.6100000000000136      54.530000000000008      57.400000000000006
   311   1      7.1750000000000114      53.095000000000006      58.835000000000015
   312   1      8.6100000000000136      54.530000000000008       60.27000000000001
   313   1      8.6100000000000136      54.530000000000008      63.140000000000001
   314   1      8.6100000000000136      57.400000000000006      31.570000000000007
   315   1      8.6100000000000136      57.400000000000006      34.440000000000012
   316   1      7.1750000000000114      55.964999999999996      35.875000000000007
   317   1      8.6100000000000136      57.400000000000006      37.310000000000009
   318   1      7.1750000000000114      55.964999999999996      38.745000000000005
   319   1      8.6100000000000136      57.400000000000006      40.180000000000007
   320   1      7.1750000000000114      55.964999999999996      41.615000000000009
   321   1      8.6100000000000136      57.400000000000006      43.050000000000011
   322   1      7.1750000000000114      55.964999999999996      44.485000000000007
   323   1      8.6100000000000136      57.400000000000006      45.920000000000009
   324   1      7.1750000000000114      55.964999999999996      47.355000000000004
   325   1      8.6100000000000136      57.400000000000006      48.790000000000006
   326   1      7.1750000000000114      55.964999999999996      50.225000000000009
   327   1      8.6100000000000136      57.400000000000006      51.660000000000011
   328   1      7.1750000000000114      55.964999999999996      53.095000000000006
   329   1      8.6100000000000136      57.400000000000006      54.530000000000008
   330   1      7.1750000000000114      55.964999999999996      55.964999999999996
   331   1      8.6100000000000136      57.400000000000006      57.400000000000006
   332   1      7.1750000000000114      55.964999999999996      58.835000000000015
   333   1      8.6100000000000136      57.400000000000006       60.27000000000001
   334   1      8.6100000000000136      57.400000000000006      63.140000000000001
   335   1      8.6100000000000136       60.27000000000001      31.570000000000007
   336   1      8.6100000000000136       60.27000000000001      34.440000000000012
   337   1      7.1750000000000114      58.835000000000015      35.875000000000007
   338   1      8.6100000000000136       60.27000000000001      37.310000000000009
   339   1      7.1750000000000114      58.835000000000015      38.745000000000005
   340   1      8.6100000000000136       60.27000000000001      40.180000000000007
   341   1      7.1750000000000114      58.835000000000015      41.615000000000009
   342   1      8.6100000000000136       60.27000000000001      43.050000000000011
   343   1      7.1750000000000114      58.835000000000015      44.485000000000007
   344   1      8.6100000000000136       60.27000000000001      45.920000000000009
   345   1      7.1750000000000114      58.835000000000015      47.355000000000004
   346   1      8.6100000000000136       60.27000000000001      48.790000000000006
   347   1      7.1750000000000114      58.835000000000015      50.225000000000009
   348   1      8.6100000000000136       60.27000000000001      51.660000000000011
   349   1      7.1750000000000114      58.835000000000015      53.095000000000006
   350   1      8.6100000000000136       60.27000000000001      54.530000000000008
   351   1      7.1750000000000114      58.835000000000015      55.964999999999996
   352   1      8.6100000000000136       60.27000000000001      57.400000000000006
   353   1      7.1750000000000114      58.835000000000015      58.835000000000015
   354   1      8.6100000000000136       60.27000000000001       60.27000000000001
   355   1      8.6100000000000136       60.27000000000001      63.140000000000001
   356   1      8.6100000000000136      63.140000000000001      31.570000000000007
   357   1      8.6100000000000136      63.140000000000001      34.440000000000012
   358   1      8.6100000000000136      63.140000000000001      37.310000000000009