model_files/PdNi/PdNi_30000/PdNi_210/PdNi_210_fcc_30389_temp.data (written by ASE) 

30389 	 atoms 
2  atom types
0.0                      95  xlo xhi
0.0                      95  ylo yhi
0.0                      95  zlo zhi


Atoms 

     1   1      94.999999999999986      44.699999999999989      46.562499999999993
     2   1      94.999999999999986      46.562499999999993      44.699999999999989
     3   1      94.999999999999986      46.562499999999993       48.42499999999999
     4   1      94.999999999999986       48.42499999999999      46.562499999999993
     5   1      3.7249999999999877      37.249999999999986       39.11249999999999
     6   1      3.7249999999999877      37.249999999999986      42.837499999999991
     7   1      3.7249999999999877      37.249999999999986      46.562499999999993
     8   1      3.7249999999999877      37.249999999999986      50.287499999999987
     9   1      3.7249999999999877      37.249999999999986      54.012499999999982
    10   1      3.7249999999999877       39.11249999999999      37.249999999999986
    11   1      1.8624999999999901      40.974999999999987      40.974999999999987
    12   1      3.7249999999999877       39.11249999999999      40.974999999999987
    13   1      3.7249999999999877      40.974999999999987       39.11249999999999
    14   1      1.8624999999999901      40.974999999999987      44.699999999999989
    15   1      3.7249999999999877       39.11249999999999      44.699999999999989
    16   1      3.7249999999999877      40.974999999999987      42.837499999999991
    17   1      1.8624999999999901      40.974999999999987       48.42499999999999
    18   1      3.7249999999999877       39.11249999999999       48.42499999999999
    19   1      3.7249999999999877      40.974999999999987      46.562499999999993
    20   1      1.8624999999999901      40.974999999999987      52.149999999999977
    21   1      3.7249999999999877       39.11249999999999      52.149999999999977
    22   1      3.7249999999999877      40.974999999999987      50.287499999999987
    23   1      3.7249999999999877       39.11249999999999      55.874999999999986
    24   1      3.7249999999999877      40.974999999999987      54.012499999999982
    25   1      3.7249999999999877      42.837499999999991      37.249999999999986
    26   1      1.8624999999999901      44.699999999999989      40.974999999999987
    27   1      3.7249999999999877      42.837499999999991      40.974999999999987
    28   1      3.7249999999999877      44.699999999999989       39.11249999999999
    29   1      1.8624999999999901      42.837499999999991      42.837499999999991
    30   1      1.8624999999999901      44.699999999999989      44.699999999999989
    31   1      3.7249999999999877      42.837499999999991      44.699999999999989
    32   1      3.7249999999999877      44.699999999999989      42.837499999999991
    33   1      1.8624999999999901      42.837499999999991      46.562499999999993
    34   1      1.8624999999999901      44.699999999999989       48.42499999999999
    35   1      3.7249999999999877      42.837499999999991       48.42499999999999
    36   1      3.7249999999999877      44.699999999999989      46.562499999999993
    37   1      1.8624999999999901      42.837499999999991      50.287499999999987
    38   1      1.8624999999999901      44.699999999999989      52.149999999999977
    39   1      3.7249999999999877      42.837499999999991      52.149999999999977
    40   1      3.7249999999999877      44.699999999999989      50.287499999999987
    41   1      3.7249999999999877      42.837499999999991      55.874999999999986
    42   1      3.7249999999999877      44.699999999999989      54.012499999999982
    43   1      3.7249999999999877      46.562499999999993      37.249999999999986
    44   1      1.8624999999999901       48.42499999999999      40.974999999999987
    45   1      3.7249999999999877      46.562499999999993      40.974999999999987
    46   1      3.7249999999999877       48.42499999999999       39.11249999999999
    47   1      1.8624999999999901      46.562499999999993      42.837499999999991
    48   1      1.8624999999999901       48.42499999999999      44.699999999999989
    49   1      3.7249999999999877      46.562499999999993      44.699999999999989
    50   1      3.7249999999999877       48.42499999999999      42.837499999999991
    51   1      1.8624999999999901      46.562499999999993      46.562499999999993
    52   1      1.8624999999999901       48.42499999999999       48.42499999999999
    53   1      3.7249999999999877      46.562499999999993       48.42499999999999
    54   1      3.7249999999999877       48.42499999999999      46.562499999999993
    55   1      1.8624999999999901      46.562499999999993      50.287499999999987
    56   1      1.8624999999999901       48.42499999999999      52.149999999999977
    57   1      3.7249999999999877      46.562499999999993      52.149999999999977
    58   1      3.7249999999999877       48.42499999999999      50.287499999999987
    59   1      3.7249999999999877      46.562499999999993      55.874999999999986
    60   1      3.7249999999999877       48.42499999999999      54.012499999999982
    61   1      3.7249999999999877      50.287499999999987      37.249999999999986
    62   1      1.8624999999999901      52.149999999999977      40.974999999999987
    63   1      3.7249999999999877      50.287499999999987      40.974999999999987
    64   1      3.7249999999999877      52.149999999999977       39.11249999999999
    65   1      1.8624999999999901      50.287499999999987      42.837499999999991
    66   1      1.8624999999999901      52.149999999999977      44.699999999999989
    67   1      3.7249999999999877      50.287499999999987      44.699999999999989
    68   1      3.7249999999999877      52.149999999999977      42.837499999999991
    69   1      1.8624999999999901      50.287499999999987      46.562499999999993
    70   1      1.8624999999999901      52.149999999999977       48.42499999999999
    71   1      3.7249999999999877      50.287499999999987       48.42499999999999
    72   1      3.7249999999999877      52.149999999999977      46.562499999999993
    73   1      1.8624999999999901      50.287499999999987      50.287499999999987
    74   1      1.8624999999999901      52.149999999999977      52.149999999999977
    75   1      3.7249999999999877      50.287499999999987      52.149999999999977
    76   1      3.7249999999999877      52.149999999999977      50.287499999999987
    77   1      3.7249999999999877      50.287499999999987      55.874999999999986
    78   1      3.7249999999999877      52.149999999999977      54.012499999999982
    79   1      3.7249999999999877      54.012499999999982      37.249999999999986
    80   1      3.7249999999999877      54.012499999999982      40.974999999999987
    81   1      3.7249999999999877      55.874999999999986       39.11249999999999
    82   1      3.7249999999999877      54.012499999999982      44.699999999999989
    83   1      3.7249999999999877      55.874999999999986      42.837499999999991
    84   1      3.7249999999999877      54.012499999999982       48.42499999999999
    85   1      3.7249999999999877      55.874999999999986      46.562499999999993
    86   1      3.7249999999999877      54.012499999999982      52.149999999999977
    87   1      3.7249999999999877      55.874999999999986      50.287499999999987
    88   1      3.7249999999999877      54.012499999999982      55.874999999999986
    89   1      3.7249999999999877      55.874999999999986      54.012499999999982
    90   1      7.4499999999999877       29.79999999999999      31.662499999999984
    91   1      7.4499999999999877       29.79999999999999      35.387499999999989
    92   1      7.4499999999999877       29.79999999999999       39.11249999999999
    93   1      7.4499999999999877       29.79999999999999      42.837499999999991
    94   1      7.4499999999999877       29.79999999999999      46.562499999999993
    95   1      7.4499999999999877       29.79999999999999      50.287499999999987
    96   1      7.4499999999999877       29.79999999999999      54.012499999999982
    97   1      7.4499999999999877       29.79999999999999      57.737499999999983
    98   1      7.4499999999999877       29.79999999999999      61.462499999999991
    99   1      7.4499999999999877      31.662499999999984       29.79999999999999
   100   1      5.5874999999999915      33.524999999999984      33.524999999999984
   101   1      7.4499999999999877      31.662499999999984      33.524999999999984
   102   1      7.4499999999999877      33.524999999999984      31.662499999999984
   103   1      5.5874999999999915      33.524999999999984      37.249999999999986
   104   1      7.4499999999999877      31.662499999999984      37.249999999999986
   105   1      7.4499999999999877      33.524999999999984      35.387499999999989
   106   1      5.5874999999999915      33.524999999999984      40.974999999999987
   107   1      7.4499999999999877      31.662499999999984      40.974999999999987
   108   1      7.4499999999999877      33.524999999999984       39.11249999999999
   109   1      5.5874999999999915      33.524999999999984      44.699999999999989
   110   1      7.4499999999999877      31.662499999999984      44.699999999999989
   111   1      7.4499999999999877      33.524999999999984      42.837499999999991
   112   1      5.5874999999999915      33.524999999999984       48.42499999999999
   113   1      7.4499999999999877      31.662499999999984       48.42499999999999
   114   1      7.4499999999999877      33.524999999999984      46.562499999999993
   115   1      5.5874999999999915      33.524999999999984      52.149999999999977
   116   1      7.4499999999999877      31.662499999999984      52.149999999999977
   117   1      7.4499999999999877      33.524999999999984      50.287499999999987
   118   1      5.5874999999999915      33.524999999999984      55.874999999999986
   119   1      7.4499999999999877      31.662499999999984      55.874999999999986
   120   1      7.4499999999999877      33.524999999999984      54.012499999999982
   121   1      5.5874999999999915      33.524999999999984      59.599999999999987
   122   1      7.4499999999999877      31.662499999999984      59.599999999999987
   123   1      7.4499999999999877      33.524999999999984      57.737499999999983
   124   1      7.4499999999999877      31.662499999999984      63.324999999999989
   125   1      7.4499999999999877      33.524999999999984      61.462499999999991
   126   1      7.4499999999999877      35.387499999999989       29.79999999999999
   127   1      5.5874999999999915      37.249999999999986      33.524999999999984
   128   1      7.4499999999999877      35.387499999999989      33.524999999999984
   129   1      7.4499999999999877      37.249999999999986      31.662499999999984
   130   1      5.5874999999999915      35.387499999999989      35.387499999999989
   131   1      5.5874999999999915      37.249999999999986      37.249999999999986
   132   1      7.4499999999999877      35.387499999999989      37.249999999999986
   133   1      7.4499999999999877      37.249999999999986      35.387499999999989
   134   1      5.5874999999999915      35.387499999999989       39.11249999999999
   135   1      5.5874999999999915      37.249999999999986      40.974999999999987
   136   1      7.4499999999999877      35.387499999999989      40.974999999999987
   137   1      7.4499999999999877      37.249999999999986       39.11249999999999
   138   1      5.5874999999999915      35.387499999999989      42.837499999999991
   139   1      5.5874999999999915      37.249999999999986      44.699999999999989
   140   1      7.4499999999999877      35.387499999999989      44.699999999999989
   141   1      7.4499999999999877      37.249999999999986      42.837499999999991
   142   1      5.5874999999999915      35.387499999999989      46.562499999999993
   143   1      5.5874999999999915      37.249999999999986       48.42499999999999
   144   1      7.4499999999999877      35.387499999999989       48.42499999999999
   145   1      7.4499999999999877      37.249999999999986      46.562499999999993
   146   1      5.5874999999999915      35.387499999999989      50.287499999999987
   147   1      5.5874999999999915      37.249999999999986      52.149999999999977
   148   1      7.4499999999999877      35.387499999999989      52.149999999999977
   149   1      7.4499999999999877      37.249999999999986      50.287499999999987
   150   1      5.5874999999999915      35.387499999999989      54.012499999999982
   151   1      5.5874999999999915      37.249999999999986      55.874999999999986
   152   1      7.4499999999999877      35.387499999999989      55.874999999999986
   153   1      7.4499999999999877      37.249999999999986      54.012499999999982
   154   1      5.5874999999999915      35.387499999999989      57.737499999999983
   155   1      5.5874999999999915      37.249999999999986      59.599999999999987
   156   1      7.4499999999999877      35.387499999999989      59.599999999999987
   157   1      7.4499999999999877      37.249999999999986      57.737499999999983
   158   1      7.4499999999999877      35.387499999999989      63.324999999999989
   159   1      7.4499999999999877      37.249999999999986      61.462499999999991
   160   1      7.4499999999999877       39.11249999999999       29.79999999999999
   161   1      5.5874999999999915      40.974999999999987      33.524999999999984
   162   1      7.4499999999999877       39.11249999999999      33.524999999999984
   163   1      7.4499999999999877      40.974999999999987      31.662499999999984
   164   1      5.5874999999999915       39.11249999999999      35.387499999999989
   165   1      5.5874999999999915      40.974999999999987      37.249999999999986
   166   1      7.4499999999999877       39.11249999999999      37.249999999999986
   167   1      7.4499999999999877      40.974999999999987      35.387499999999989
   168   1      5.5874999999999915       39.11249999999999       39.11249999999999
   169   1      5.5874999999999915      40.974999999999987      40.974999999999987
   170   1      7.4499999999999877       39.11249999999999      40.974999999999987
   171   1      7.4499999999999877      40.974999999999987       39.11249999999999
   172   1      5.5874999999999915       39.11249999999999      42.837499999999991
   173   1      5.5874999999999915      40.974999999999987      44.699999999999989
   174   1      7.4499999999999877       39.11249999999999      44.699999999999989
   175   1      7.4499999999999877      40.974999999999987      42.837499999999991
   176   1      5.5874999999999915       39.11249999999999      46.562499999999993
   177   1      5.5874999999999915      40.974999999999987       48.42499999999999
   178   1      7.4499999999999877       39.11249999999999       48.42499999999999
   179   1      7.4499999999999877      40.974999999999987      46.562499999999993
   180   1      5.5874999999999915       39.11249999999999      50.287499999999987
   181   1      5.5874999999999915      40.974999999999987      52.149999999999977
   182   1      7.4499999999999877       39.11249999999999      52.149999999999977
   183   1      7.4499999999999877      40.974999999999987      50.287499999999987
   184   1      5.5874999999999915       39.11249999999999      54.012499999999982
   185   1      5.5874999999999915      40.974999999999987      55.874999999999986
   186   1      7.4499999999999877       39.11249999999999      55.874999999999986
   187   1      7.4499999999999877      40.974999999999987      54.012499999999982
   188   1      5.5874999999999915       39.11249999999999      57.737499999999983
   189   1      5.5874999999999915      40.974999999999987      59.599999999999987
   190   1      7.4499999999999877       39.11249999999999      59.599999999999987
   191   1      7.4499999999999877      40.974999999999987      57.737499999999983
   192   1      7.4499999999999877       39.11249999999999      63.324999999999989
   193   1      7.4499999999999877      40.974999999999987      61.462499999999991
   194   1      7.4499999999999877      42.837499999999991       29.79999999999999
   195   1      5.5874999999999915      44.699999999999989      33.524999999999984
   196   1      7.4499999999999877      42.837499999999991      33.524999999999984
   197   1      7.4499999999999877      44.699999999999989      31.662499999999984
   198   1      5.5874999999999915      42.837499999999991      35.387499999999989
   199   1      5.5874999999999915      44.699999999999989      37.249999999999986
   200   1      7.4499999999999877      42.837499999999991      37.249999999999986
   201   1      7.4499999999999877      44.699999999999989      35.387499999999989
   202   1      5.5874999999999915      42.837499999999991       39.11249999999999
   203   1      5.5874999999999915      44.699999999999989      40.974999999999987
   204   1      7.4499999999999877      42.837499999999991      40.974999999999987
   205   1      7.4499999999999877      44.699999999999989       39.11249999999999
   206   1      5.5874999999999915      42.837499999999991      42.837499999999991
   207   1      5.5874999999999915      44.699999999999989      44.699999999999989
   208   1      7.4499999999999877      42.837499999999991      44.699999999999989
   209   1      7.4499999999999877      44.699999999999989      42.837499999999991
   210   1      5.5874999999999915      42.837499999999991      46.562499999999993
   211   1      5.5874999999999915      44.699999999999989       48.42499999999999
   212   1      7.4499999999999877      42.837499999999991       48.42499999999999
   213   1      7.4499999999999877      44.699999999999989      46.562499999999993
   214   1      5.5874999999999915      42.837499999999991      50.287499999999987
   215   1      5.5874999999999915      44.699999999999989      52.149999999999977
   216   1      7.4499999999999877      42.837499999999991      52.149999999999977
   217   1      7.4499999999999877      44.699999999999989      50.287499999999987
   218   1      5.5874999999999915      42.837499999999991      54.012499999999982
   219   1      5.5874999999999915      44.699999999999989      55.874999999999986
   220   1      7.4499999999999877      42.837499999999991      55.874999999999986
   221   1      7.4499999999999877      44.699999999999989      54.012499999999982
   222   1      5.5874999999999915      42.837499999999991      57.737499999999983
   223   1      5.5874999999999915      44.699999999999989      59.599999999999987
   224   1      7.4499999999999877      42.837499999999991      59.599999999999987
   225   1      7.4499999999999877      44.699999999999989      57.737499999999983
   226   1      7.4499999999999877      42.837499999999991      63.324999999999989
   227   1      7.4499999999999877      44.699999999999989      61.462499999999991
   228   1      7.4499999999999877      46.562499999999993       29.79999999999999
   229   1      5.5874999999999915       48.42499999999999      33.524999999999984
   230   1      7.4499999999999877      46.562499999999993      33.524999999999984
   231   1      7.4499999999999877       48.42499999999999      31.662499999999984
   232   1      5.5874999999999915      46.562499999999993      35.387499999999989
   233   1      5.5874999999999915       48.42499999999999      37.249999999999986
   234   1      7.4499999999999877      46.562499999999993      37.249999999999986
   235   1      7.4499999999999877       48.42499999999999      35.387499999999989
   236   1      5.5874999999999915      46.562499999999993       39.11249999999999
   237   1      5.5874999999999915       48.42499999999999      40.974999999999987
   238   1      7.4499999999999877      46.562499999999993      40.974999999999987
   239   1      7.4499999999999877       48.42499999999999       39.11249999999999
   240   1      5.5874999999999915      46.562499999999993      42.837499999999991
   241   1      5.5874999999999915       48.42499999999999      44.699999999999989
   242   1      7.4499999999999877      46.562499999999993      44.699999999999989
   243   1      7.4499999999999877       48.42499999999999      42.837499999999991
   244   1      5.5874999999999915      46.562499999999993      46.562499999999993
   245   1      5.5874999999999915       48.42499999999999       48.42499999999999
   246   1      7.4499999999999877      46.562499999999993       48.42499999999999
   247   1      7.4499999999999877       48.42499999999999      46.562499999999993
   248   1      5.5874999999999915      46.562499999999993      50.287499999999987
   249   1      5.5874999999999915       48.42499999999999      52.149999999999977
   250   1      7.4499999999999877      46.562499999999993      52.149999999999977
   251   1      7.4499999999999877       48.42499999999999      50.287499999999987
   252   1      5.5874999999999915      46.562499999999993      54.012499999999982
   253   1      5.5874999999999915       48.42499999999999      55.874999999999986
   254   1      7.4499999999999877      46.562499999999993      55.874999999999986
   255   1      7.4499999999999877       48.42499999999999      54.012499999999982
   256   1      5.5874999999999915      46.562499999999993      57.737499999999983
   257   1      5.5874999999999915       48.42499999999999      59.599999999999987
   258   1      7.4499999999999877      46.562499999999993      59.599999999999987
   259   1      7.4499999999999877       48.42499999999999      57.737499999999983
   260   1      7.4499999999999877      46.562499999999993      63.324999999999989
   261   1      7.4499999999999877       48.42499999999999      61.462499999999991
   262   1      7.4499999999999877      50.287499999999987       29.79999999999999
   263   1      5.5874999999999915      52.149999999999977      33.524999999999984
   264   1      7.4499999999999877      50.287499999999987      33.524999999999984
   265   1      7.4499999999999877      52.149999999999977      31.662499999999984
   266   1      5.5874999999999915      50.287499999999987      35.387499999999989
   267   1      5.5874999999999915      52.149999999999977      37.249999999999986
   268   1      7.4499999999999877      50.287499999999987      37.249999999999986
   269   1      7.4499999999999877      52.149999999999977      35.387499999999989
   270   1      5.5874999999999915      50.287499999999987       39.11249999999999
   271   1      5.5874999999999915      52.149999999999977      40.974999999999987
   272   1      7.4499999999999877      50.287499999999987      40.974999999999987
   273   1      7.4499999999999877      52.149999999999977       39.11249999999999
   274   1      5.5874999999999915      50.287499999999987      42.837499999999991
   275   1      5.5874999999999915      52.149999999999977      44.699999999999989
   276   1      7.4499999999999877      50.287499999999987      44.699999999999989
   277   1      7.4499999999999877      52.149999999999977      42.837499999999991
   278   1      5.5874999999999915      50.287499999999987      46.562499999999993
   279   1      5.5874999999999915      52.149999999999977       48.42499999999999
   280   1      7.4499999999999877      50.287499999999987       48.42499999999999
   281   1      7.4499999999999877      52.149999999999977      46.562499999999993
   282   1      5.5874999999999915      50.287499999999987      50.287499999999987
   283   1      5.5874999999999915      52.149999999999977      52.149999999999977
   284   1      7.4499999999999877      50.287499999999987      52.149999999999977
   285   1      7.4499999999999877      52.149999999999977      50.287499999999987
   286   1      5.5874999999999915      50.287499999999987      54.012499999999982
   287   1      5.5874999999999915      52.149999999999977      55.874999999999986
   288   1      7.4499999999999877      50.287499999999987      55.874999999999986
   289   1      7.4499999999999877      52.149999999999977      54.012499999999982
   290   1      5.5874999999999915      50.287499999999987      57.737499999999983
   291   1      5.5874999999999915      52.149999999999977      59.599999999999987
   292   1      7.4499999999999877      50.287499999999987      59.599999999999987
   293   1      7.4499999999999877      52.149999999999977      57.737499999999983
   294   1      7.4499999999999877      50.287499999999987      63.324999999999989
   295   1      7.4499999999999877      52.149999999999977      61.462499999999991
   296   1      7.4499999999999877      54.012499999999982       29.79999999999999
   297   1      5.5874999999999915      55.874999999999986      33.524999999999984
   298   1      7.4499999999999877      54.012499999999982      33.524999999999984
   299   1      7.4499999999999877      55.874999999999986      31.662499999999984
   300   1      5.5874999999999915      54.012499999999982      35.387499999999989
   301   1      5.5874999999999915      55.874999999999986      37.249999999999986
   302   1      7.4499999999999877      54.012499999999982      37.249999999999986
   303   1      7.4499999999999877      55.874999999999986      35.387499999999989
   304   1      5.5874999999999915      54.012499999999982       39.11249999999999
   305   1      5.5874999999999915      55.874999999999986      40.974999999999987
   306   1      7.4499999999999877      54.012499999999982      40.974999999999987
   307   1      7.4499999999999877      55.874999999999986       39.11249999999999
   308   1      5.5874999999999915      54.012499999999982      42.837499999999991
   309   1      5.5874999999999915      55.874999999999986      44.699999999999989
   310   1      7.4499999999999877      54.012499999999982      44.699999999999989
   311   1      7.4499999999999877      55.874999999999986      42.837499999999991
   312   1      5.5874999999999915      54.012499999999982      46.562499999999993
   313   1      5.5874999999999915      55.874999999999986       48.42499999999999
   314   1      7.4499999999999877      54.012499999999982       48.42499999999999
   315   1      7.4499999999999877      55.874999999999986      46.562499999999993
   316   1      5.5874999999999915      54.012499999999982      50.287499999999987
   317   1      5.5874999999999915      55.874999999999986      52.149999999999977
   318   1      7.4499999999999877      54.012499999999982      52.149999999999977
   319   1      7.4499999999999877      55.874999999999986      50.287499999999987
   320   1      5.5874999999999915      54.012499999999982      54.012499999999982
   321   1      5.5874999999999915      55.874999999999986      55.874999999999986
   322   1      7.4499999999999877      54.012499999999982      55.874999999999986
   323   1      7.4499999999999877      55.874999999999986      54.012499999999982
   324   1      5.5874999999999915      54.012499999999982      57.737499999999983
   325   1      5.5874999999999915      55.874999999999986      59.599999999999987
   326   1      7.4499999999999877      54.012499999999982      59.599999999999987
   327   1      7.4499999999999877      55.874999999999986      57.737499999999983
   328   1      7.4499999999999877      54.012499999999982      63.324999999999989
   329   1      7.4499999999999877      55.874999999999986      61.462499999999991
   330   1      7.4499999999999877      57.737499999999983       29.79999999999999
   331   1      5.5874999999999915      59.599999999999987      33.524999999999984
   332   1      7.4499999999999877      57.737499999999983      33.524999999999984
   333   1      7.4499999999999877      59.599999999999987      31.662499999999984
   334   1      5.5874999999999915      57.737499999999983      35.387499999999989
   335   1      5.5874999999999915      59.599999999999987      37.249999999999986
   336   1      7.4499999999999877      57.737499999999983      37.249999999999986
   337   1      7.4499999999999877      59.599999999999987      35.387499999999989
   338   1      5.5874999999999915      57.737499999999983       39.11249999999999
   339   1      5.5874999999999915      59.599999999999987      40.974999999999987
   340   1      7.4499999999999877      57.737499999999983      40.974999999999987
   341   1      7.4499999999999877      59.599999999999987       39.11249999999999
   342   1      5.5874999999999915      57.737499999999983      42.837499999999991
   343   1      5.5874999999999915      59.599999999999987      44.699999999999989
   344   1      7.4499999999999877      57.737499999999983      44.699999999999989
   345   1      7.4499999999999877      59.599999999999987      42.837499999999991
   346   1      5.5874999999999915      57.737499999999983      46.562499999999993
   347   1      5.5874999999999915      59.599999999999987       48.42499999999999
   348   1      7.4499999999999877      57.737499999999983       48.42499999999999
   349   1      7.4499999999999877      59.599999999999987      46.562499999999993
   350   1      5.5874999999999915      57.737499999999983      50.287499999999987
   351   1      5.5874999999999915      59.599999999999987      52.149999999999977
   352   1      7.4499999999999877      57.737499999999983      52.149999999999977
   353   1      7.4499999999999877      59.599999999999987      50.287499999999987
   354   1      5.5874999999999915      57.737499999999983      54.012499999999982
   355   1      5.5874999999999915      59.599999999999987      55.874999999999986
   356   1      7.4499999999999877      57.737499999999983      55.874999999999986
   357   1      7.4499999999999877      59.599999999999987      54.012499999999982
   358   1      5.5874999999999915      57.737499999999983      57.737499999999983