model_files/NiFeCrCoCu/NiFeCrCoCu_30000/NiFeCrCoCu_432/NiFeCrCoCu_432_fcc_29911_temp.data (written by ASE) 

29911 	 atoms 
5  atom types
0.0                     109  xlo xhi
0.0                     109  ylo yhi
0.0                     109  zlo zhi


Atoms 

     1   1      1.7850000000000037      51.765000000000001      53.550000000000004
     2   1      1.7850000000000037      53.550000000000004      51.765000000000001
     3   1  7.1054273576010019e-15      53.550000000000004      53.550000000000004
     4   1      1.7850000000000037      53.550000000000004      55.335000000000001
     5   1      1.7850000000000037      55.335000000000001      53.550000000000004
     6   1       5.355000000000004                  44.625      53.550000000000004
     7   1      3.5700000000000074                  48.195      51.765000000000001
     8   1       5.355000000000004      46.410000000000004      51.765000000000001
     9   1       5.355000000000004                  48.195      49.980000000000004
    10   1      3.5700000000000074                  48.195      55.335000000000001
    11   1       5.355000000000004      46.410000000000004      55.335000000000001
    12   1       5.355000000000004                  48.195      53.550000000000004
    13   1       5.355000000000004                  48.195      57.120000000000012
    14   1      3.5700000000000074      51.765000000000001                  48.195
    15   1       5.355000000000004      49.980000000000004                  48.195
    16   1       5.355000000000004      51.765000000000001      46.410000000000004
    17   1      3.5700000000000074      49.980000000000004      49.980000000000004
    18   1      3.5700000000000074      51.765000000000001      51.765000000000001
    19   1       5.355000000000004      49.980000000000004      51.765000000000001
    20   1       5.355000000000004      51.765000000000001      49.980000000000004
    21   1      3.5700000000000074      49.980000000000004      53.550000000000004
    22   1      3.5700000000000074      51.765000000000001      55.335000000000001
    23   1       5.355000000000004      49.980000000000004      55.335000000000001
    24   1       5.355000000000004      51.765000000000001      53.550000000000004
    25   1      3.5700000000000074      49.980000000000004      57.120000000000012
    26   1      3.5700000000000074      51.765000000000001      58.905000000000008
    27   1       5.355000000000004      49.980000000000004      58.905000000000008
    28   1       5.355000000000004      51.765000000000001      57.120000000000012
    29   1       5.355000000000004      51.765000000000001      60.690000000000005
    30   1       5.355000000000004      53.550000000000004                  44.625
    31   1      3.5700000000000074      55.335000000000001                  48.195
    32   1       5.355000000000004      53.550000000000004                  48.195
    33   1       5.355000000000004      55.335000000000001      46.410000000000004
    34   1      3.5700000000000074      53.550000000000004      49.980000000000004
    35   1      3.5700000000000074      55.335000000000001      51.765000000000001
    36   1       5.355000000000004      53.550000000000004      51.765000000000001
    37   1       5.355000000000004      55.335000000000001      49.980000000000004
    38   1      3.5700000000000074      53.550000000000004      53.550000000000004
    39   1      3.5700000000000074      55.335000000000001      55.335000000000001
    40   1       5.355000000000004      53.550000000000004      55.335000000000001
    41   1       5.355000000000004      55.335000000000001      53.550000000000004
    42   1      3.5700000000000074      53.550000000000004      57.120000000000012
    43   1      3.5700000000000074      55.335000000000001      58.905000000000008
    44   1       5.355000000000004      53.550000000000004      58.905000000000008
    45   1       5.355000000000004      55.335000000000001      57.120000000000012
    46   1       5.355000000000004      53.550000000000004      62.475000000000001
    47   1       5.355000000000004      55.335000000000001      60.690000000000005
    48   1       5.355000000000004      57.120000000000012                  48.195
    49   1      3.5700000000000074      57.120000000000012      49.980000000000004
    50   1      3.5700000000000074      58.905000000000008      51.765000000000001
    51   1       5.355000000000004      57.120000000000012      51.765000000000001
    52   1       5.355000000000004      58.905000000000008      49.980000000000004
    53   1      3.5700000000000074      57.120000000000012      53.550000000000004
    54   1      3.5700000000000074      58.905000000000008      55.335000000000001
    55   1       5.355000000000004      57.120000000000012      55.335000000000001
    56   1       5.355000000000004      58.905000000000008      53.550000000000004
    57   1      3.5700000000000074      57.120000000000012      57.120000000000012
    58   1       5.355000000000004      57.120000000000012      58.905000000000008
    59   1       5.355000000000004      58.905000000000008      57.120000000000012
    60   1       5.355000000000004      60.690000000000005      51.765000000000001
    61   1       5.355000000000004      60.690000000000005      55.335000000000001
    62   1       5.355000000000004      62.475000000000001      53.550000000000004
    63   1      8.9250000000000043                  41.055      53.550000000000004
    64   1      8.9250000000000043                  44.625      46.410000000000004
    65   1      7.1400000000000077                  44.625      51.765000000000001
    66   1      8.9250000000000043      42.840000000000003      51.765000000000001
    67   1      8.9250000000000043                  44.625      49.980000000000004
    68   1      7.1400000000000077      42.840000000000003      53.550000000000004
    69   1      7.1400000000000077                  44.625      55.335000000000001
    70   1      8.9250000000000043      42.840000000000003      55.335000000000001
    71   1      8.9250000000000043                  44.625      53.550000000000004
    72   1      8.9250000000000043                  44.625      57.120000000000012
    73   1      8.9250000000000043                  44.625      60.690000000000005
    74   1      8.9250000000000043      46.410000000000004                  44.625
    75   1      7.1400000000000077                  48.195                  48.195
    76   1      8.9250000000000043      46.410000000000004                  48.195
    77   1      8.9250000000000043                  48.195      46.410000000000004
    78   1      7.1400000000000077      46.410000000000004      49.980000000000004
    79   1      7.1400000000000077                  48.195      51.765000000000001
    80   1      8.9250000000000043      46.410000000000004      51.765000000000001
    81   1      8.9250000000000043                  48.195      49.980000000000004
    82   1      7.1400000000000077      46.410000000000004      53.550000000000004
    83   1      7.1400000000000077                  48.195      55.335000000000001
    84   1      8.9250000000000043      46.410000000000004      55.335000000000001
    85   1      8.9250000000000043                  48.195      53.550000000000004
    86   1      7.1400000000000077      46.410000000000004      57.120000000000012
    87   1      7.1400000000000077                  48.195      58.905000000000008
    88   1      8.9250000000000043      46.410000000000004      58.905000000000008
    89   1      8.9250000000000043                  48.195      57.120000000000012
    90   1      8.9250000000000043      46.410000000000004      62.475000000000001
    91   1      8.9250000000000043                  48.195      60.690000000000005
    92   1      7.1400000000000077      51.765000000000001                  44.625
    93   1      8.9250000000000043      49.980000000000004                  44.625
    94   1      8.9250000000000043      51.765000000000001      42.840000000000003
    95   1      7.1400000000000077      49.980000000000004      46.410000000000004
    96   1      7.1400000000000077      51.765000000000001                  48.195
    97   1      8.9250000000000043      49.980000000000004                  48.195
    98   1      8.9250000000000043      51.765000000000001      46.410000000000004
    99   1      7.1400000000000077      49.980000000000004      49.980000000000004
   100   1      7.1400000000000077      51.765000000000001      51.765000000000001
   101   1      8.9250000000000043      49.980000000000004      51.765000000000001
   102   1      8.9250000000000043      51.765000000000001      49.980000000000004
   103   1      7.1400000000000077      49.980000000000004      53.550000000000004
   104   1      7.1400000000000077      51.765000000000001      55.335000000000001
   105   1      8.9250000000000043      49.980000000000004      55.335000000000001
   106   1      8.9250000000000043      51.765000000000001      53.550000000000004
   107   1      7.1400000000000077      49.980000000000004      57.120000000000012
   108   1      7.1400000000000077      51.765000000000001      58.905000000000008
   109   1      8.9250000000000043      49.980000000000004      58.905000000000008
   110   1      8.9250000000000043      51.765000000000001      57.120000000000012
   111   1      7.1400000000000077      49.980000000000004      60.690000000000005
   112   1      7.1400000000000077      51.765000000000001      62.475000000000001
   113   1      8.9250000000000043      49.980000000000004      62.475000000000001
   114   1      8.9250000000000043      51.765000000000001      60.690000000000005
   115   1      8.9250000000000043      51.765000000000001      64.260000000000005
   116   1      8.9250000000000043      53.550000000000004                  41.055
   117   1      7.1400000000000077      53.550000000000004      42.840000000000003
   118   1      7.1400000000000077      55.335000000000001                  44.625
   119   1      8.9250000000000043      53.550000000000004                  44.625
   120   1      8.9250000000000043      55.335000000000001      42.840000000000003
   121   1      7.1400000000000077      53.550000000000004      46.410000000000004
   122   1      7.1400000000000077      55.335000000000001                  48.195
   123   1      8.9250000000000043      53.550000000000004                  48.195
   124   1      8.9250000000000043      55.335000000000001      46.410000000000004
   125   1      7.1400000000000077      53.550000000000004      49.980000000000004
   126   1      7.1400000000000077      55.335000000000001      51.765000000000001
   127   1      8.9250000000000043      53.550000000000004      51.765000000000001
   128   1      8.9250000000000043      55.335000000000001      49.980000000000004
   129   1      7.1400000000000077      53.550000000000004      53.550000000000004
   130   1      7.1400000000000077      55.335000000000001      55.335000000000001
   131   1      8.9250000000000043      53.550000000000004      55.335000000000001
   132   1      8.9250000000000043      55.335000000000001      53.550000000000004
   133   1      7.1400000000000077      53.550000000000004      57.120000000000012
   134   1      7.1400000000000077      55.335000000000001      58.905000000000008
   135   1      8.9250000000000043      53.550000000000004      58.905000000000008
   136   1      8.9250000000000043      55.335000000000001      57.120000000000012
   137   1      7.1400000000000077      53.550000000000004      60.690000000000005
   138   1      7.1400000000000077      55.335000000000001      62.475000000000001
   139   1      8.9250000000000043      53.550000000000004      62.475000000000001
   140   1      8.9250000000000043      55.335000000000001      60.690000000000005
   141   1      7.1400000000000077      53.550000000000004      64.260000000000005
   142   1      8.9250000000000043      53.550000000000004      66.045000000000002
   143   1      8.9250000000000043      55.335000000000001      64.260000000000005
   144   1      8.9250000000000043      57.120000000000012                  44.625
   145   1      7.1400000000000077      57.120000000000012      46.410000000000004
   146   1      7.1400000000000077      58.905000000000008                  48.195
   147   1      8.9250000000000043      57.120000000000012                  48.195
   148   1      8.9250000000000043      58.905000000000008      46.410000000000004
   149   1      7.1400000000000077      57.120000000000012      49.980000000000004
   150   1      7.1400000000000077      58.905000000000008      51.765000000000001
   151   1      8.9250000000000043      57.120000000000012      51.765000000000001
   152   1      8.9250000000000043      58.905000000000008      49.980000000000004
   153   1      7.1400000000000077      57.120000000000012      53.550000000000004
   154   1      7.1400000000000077      58.905000000000008      55.335000000000001
   155   1      8.9250000000000043      57.120000000000012      55.335000000000001
   156   1      8.9250000000000043      58.905000000000008      53.550000000000004
   157   1      7.1400000000000077      57.120000000000012      57.120000000000012
   158   1      7.1400000000000077      58.905000000000008      58.905000000000008
   159   1      8.9250000000000043      57.120000000000012      58.905000000000008
   160   1      8.9250000000000043      58.905000000000008      57.120000000000012
   161   1      7.1400000000000077      57.120000000000012      60.690000000000005
   162   1      8.9250000000000043      57.120000000000012      62.475000000000001
   163   1      8.9250000000000043      58.905000000000008      60.690000000000005
   164   1      8.9250000000000043      60.690000000000005                  44.625
   165   1      8.9250000000000043      60.690000000000005                  48.195
   166   1      8.9250000000000043      62.475000000000001      46.410000000000004
   167   1      7.1400000000000077      60.690000000000005      49.980000000000004
   168   1      7.1400000000000077      62.475000000000001      51.765000000000001
   169   1      8.9250000000000043      60.690000000000005      51.765000000000001
   170   1      8.9250000000000043      62.475000000000001      49.980000000000004
   171   1      7.1400000000000077      60.690000000000005      53.550000000000004
   172   1      7.1400000000000077      62.475000000000001      55.335000000000001
   173   1      8.9250000000000043      60.690000000000005      55.335000000000001
   174   1      8.9250000000000043      62.475000000000001      53.550000000000004
   175   1      7.1400000000000077      60.690000000000005      57.120000000000012
   176   1      8.9250000000000043      60.690000000000005      58.905000000000008
   177   1      8.9250000000000043      62.475000000000001      57.120000000000012
   178   1      8.9250000000000043      60.690000000000005      62.475000000000001
   179   1      8.9250000000000043      62.475000000000001      60.690000000000005
   180   1      8.9250000000000043      64.260000000000005      51.765000000000001
   181   1      7.1400000000000077      64.260000000000005      53.550000000000004
   182   1      8.9250000000000043      64.260000000000005      55.335000000000001
   183   1      8.9250000000000043      66.045000000000002      53.550000000000004
   184   1      12.495000000000006      37.484999999999999      49.980000000000004
   185   1      12.495000000000006      37.484999999999999      53.550000000000004
   186   1      12.495000000000006      37.484999999999999      57.120000000000012
   187   1      10.710000000000008                  41.055                  48.195
   188   1      12.495000000000006      39.270000000000003                  48.195
   189   1      12.495000000000006                  41.055      46.410000000000004
   190   1      10.710000000000008                  41.055      51.765000000000001
   191   1      12.495000000000006      39.270000000000003      51.765000000000001
   192   1      12.495000000000006                  41.055      49.980000000000004
   193   1      10.710000000000008      39.270000000000003      53.550000000000004
   194   1      10.710000000000008                  41.055      55.335000000000001
   195   1      12.495000000000006      39.270000000000003      55.335000000000001
   196   1      12.495000000000006                  41.055      53.550000000000004
   197   1      10.710000000000008                  41.055      58.905000000000008
   198   1      12.495000000000006      39.270000000000003      58.905000000000008
   199   1      12.495000000000006                  41.055      57.120000000000012
   200   1      12.495000000000006                  41.055      60.690000000000005
   201   1      10.710000000000008                  44.625                  44.625
   202   1      12.495000000000006      42.840000000000003                  44.625
   203   1      12.495000000000006                  44.625      42.840000000000003
   204   1      10.710000000000008      42.840000000000003      46.410000000000004
   205   1      10.710000000000008                  44.625                  48.195
   206   1      12.495000000000006      42.840000000000003                  48.195
   207   1      12.495000000000006                  44.625      46.410000000000004
   208   1      10.710000000000008      42.840000000000003      49.980000000000004
   209   1      10.710000000000008                  44.625      51.765000000000001
   210   1      12.495000000000006      42.840000000000003      51.765000000000001
   211   1      12.495000000000006                  44.625      49.980000000000004
   212   1      10.710000000000008      42.840000000000003      53.550000000000004
   213   1      10.710000000000008                  44.625      55.335000000000001
   214   1      12.495000000000006      42.840000000000003      55.335000000000001
   215   1      12.495000000000006                  44.625      53.550000000000004
   216   1      10.710000000000008      42.840000000000003      57.120000000000012
   217   1      10.710000000000008                  44.625      58.905000000000008
   218   1      12.495000000000006      42.840000000000003      58.905000000000008
   219   1      12.495000000000006                  44.625      57.120000000000012
   220   1      10.710000000000008      42.840000000000003      60.690000000000005
   221   1      10.710000000000008                  44.625      62.475000000000001
   222   1      12.495000000000006      42.840000000000003      62.475000000000001
   223   1      12.495000000000006                  44.625      60.690000000000005
   224   1      12.495000000000006                  44.625      64.260000000000005
   225   1      10.710000000000008                  48.195                  41.055
   226   1      12.495000000000006      46.410000000000004                  41.055
   227   1      12.495000000000006                  48.195      39.270000000000003
   228   1      10.710000000000008      46.410000000000004      42.840000000000003
   229   1      10.710000000000008                  48.195                  44.625
   230   1      12.495000000000006      46.410000000000004                  44.625
   231   1      12.495000000000006                  48.195      42.840000000000003
   232   1      10.710000000000008      46.410000000000004      46.410000000000004
   233   1      10.710000000000008                  48.195                  48.195
   234   1      12.495000000000006      46.410000000000004                  48.195
   235   1      12.495000000000006                  48.195      46.410000000000004
   236   1      10.710000000000008      46.410000000000004      49.980000000000004
   237   1      10.710000000000008                  48.195      51.765000000000001
   238   1      12.495000000000006      46.410000000000004      51.765000000000001
   239   1      12.495000000000006                  48.195      49.980000000000004
   240   1      10.710000000000008      46.410000000000004      53.550000000000004
   241   1      10.710000000000008                  48.195      55.335000000000001
   242   1      12.495000000000006      46.410000000000004      55.335000000000001
   243   1      12.495000000000006                  48.195      53.550000000000004
   244   1      10.710000000000008      46.410000000000004      57.120000000000012
   245   1      10.710000000000008                  48.195      58.905000000000008
   246   1      12.495000000000006      46.410000000000004      58.905000000000008
   247   1      12.495000000000006                  48.195      57.120000000000012
   248   1      10.710000000000008      46.410000000000004      60.690000000000005
   249   1      10.710000000000008                  48.195      62.475000000000001
   250   1      12.495000000000006      46.410000000000004      62.475000000000001
   251   1      12.495000000000006                  48.195      60.690000000000005
   252   1      10.710000000000008      46.410000000000004      64.260000000000005
   253   1      10.710000000000008                  48.195      66.045000000000002
   254   1      12.495000000000006      46.410000000000004      66.045000000000002
   255   1      12.495000000000006                  48.195      64.260000000000005
   256   1      12.495000000000006                  48.195      67.829999999999998
   257   1      12.495000000000006      49.980000000000004      37.484999999999999
   258   1      10.710000000000008      51.765000000000001                  41.055
   259   1      12.495000000000006      49.980000000000004                  41.055
   260   1      12.495000000000006      51.765000000000001      39.270000000000003
   261   1      10.710000000000008      49.980000000000004      42.840000000000003
   262   1      10.710000000000008      51.765000000000001                  44.625
   263   1      12.495000000000006      49.980000000000004                  44.625
   264   1      12.495000000000006      51.765000000000001      42.840000000000003
   265   1      10.710000000000008      49.980000000000004      46.410000000000004
   266   1      10.710000000000008      51.765000000000001                  48.195
   267   1      12.495000000000006      49.980000000000004                  48.195
   268   1      12.495000000000006      51.765000000000001      46.410000000000004
   269   1      10.710000000000008      49.980000000000004      49.980000000000004
   270   1      10.710000000000008      51.765000000000001      51.765000000000001
   271   1      12.495000000000006      49.980000000000004      51.765000000000001
   272   1      12.495000000000006      51.765000000000001      49.980000000000004
   273   1      10.710000000000008      49.980000000000004      53.550000000000004
   274   1      10.710000000000008      51.765000000000001      55.335000000000001
   275   1      12.495000000000006      49.980000000000004      55.335000000000001
   276   1      12.495000000000006      51.765000000000001      53.550000000000004
   277   1      10.710000000000008      49.980000000000004      57.120000000000012
   278   1      10.710000000000008      51.765000000000001      58.905000000000008
   279   1      12.495000000000006      49.980000000000004      58.905000000000008
   280   1      12.495000000000006      51.765000000000001      57.120000000000012
   281   1      10.710000000000008      49.980000000000004      60.690000000000005
   282   1      10.710000000000008      51.765000000000001      62.475000000000001
   283   1      12.495000000000006      49.980000000000004      62.475000000000001
   284   1      12.495000000000006      51.765000000000001      60.690000000000005
   285   1      10.710000000000008      49.980000000000004      64.260000000000005
   286   1      10.710000000000008      51.765000000000001      66.045000000000002
   287   1      12.495000000000006      49.980000000000004      66.045000000000002
   288   1      12.495000000000006      51.765000000000001      64.260000000000005
   289   1      12.495000000000006      49.980000000000004      69.614999999999995
   290   1      12.495000000000006      51.765000000000001      67.829999999999998
   291   1      12.495000000000006      53.550000000000004      37.484999999999999
   292   1      10.710000000000008      53.550000000000004      39.270000000000003
   293   1      10.710000000000008      55.335000000000001                  41.055
   294   1      12.495000000000006      53.550000000000004                  41.055
   295   1      12.495000000000006      55.335000000000001      39.270000000000003
   296   1      10.710000000000008      53.550000000000004      42.840000000000003
   297   1      10.710000000000008      55.335000000000001                  44.625
   298   1      12.495000000000006      53.550000000000004                  44.625
   299   1      12.495000000000006      55.335000000000001      42.840000000000003
   300   1      10.710000000000008      53.550000000000004      46.410000000000004
   301   1      10.710000000000008      55.335000000000001                  48.195
   302   1      12.495000000000006      53.550000000000004                  48.195
   303   1      12.495000000000006      55.335000000000001      46.410000000000004
   304   1      10.710000000000008      53.550000000000004      49.980000000000004
   305   1      10.710000000000008      55.335000000000001      51.765000000000001
   306   1      12.495000000000006      53.550000000000004      51.765000000000001
   307   1      12.495000000000006      55.335000000000001      49.980000000000004
   308   1      10.710000000000008      53.550000000000004      53.550000000000004
   309   1      10.710000000000008      55.335000000000001      55.335000000000001
   310   1      12.495000000000006      53.550000000000004      55.335000000000001
   311   1      12.495000000000006      55.335000000000001      53.550000000000004
   312   1      10.710000000000008      53.550000000000004      57.120000000000012
   313   1      10.710000000000008      55.335000000000001      58.905000000000008
   314   1      12.495000000000006      53.550000000000004      58.905000000000008
   315   1      12.495000000000006      55.335000000000001      57.120000000000012
   316   1      10.710000000000008      53.550000000000004      60.690000000000005
   317   1      10.710000000000008      55.335000000000001      62.475000000000001
   318   1      12.495000000000006      53.550000000000004      62.475000000000001
   319   1      12.495000000000006      55.335000000000001      60.690000000000005
   320   1      10.710000000000008      53.550000000000004      64.260000000000005
   321   1      10.710000000000008      55.335000000000001      66.045000000000002
   322   1      12.495000000000006      53.550000000000004      66.045000000000002
   323   1      12.495000000000006      55.335000000000001      64.260000000000005
   324   1      10.710000000000008      53.550000000000004      67.829999999999998
   325   1      12.495000000000006      53.550000000000004      69.614999999999995
   326   1      12.495000000000006      55.335000000000001      67.829999999999998
   327   1      12.495000000000006      57.120000000000012      37.484999999999999
   328   1      10.710000000000008      58.905000000000008                  41.055
   329   1      12.495000000000006      57.120000000000012                  41.055
   330   1      12.495000000000006      58.905000000000008      39.270000000000003
   331   1      10.710000000000008      57.120000000000012      42.840000000000003
   332   1      10.710000000000008      58.905000000000008                  44.625
   333   1      12.495000000000006      57.120000000000012                  44.625
   334   1      12.495000000000006      58.905000000000008      42.840000000000003
   335   1      10.710000000000008      57.120000000000012      46.410000000000004
   336   1      10.710000000000008      58.905000000000008                  48.195
   337   1      12.495000000000006      57.120000000000012                  48.195
   338   1      12.495000000000006      58.905000000000008      46.410000000000004
   339   1      10.710000000000008      57.120000000000012      49.980000000000004
   340   1      10.710000000000008      58.905000000000008      51.765000000000001
   341   1      12.495000000000006      57.120000000000012      51.765000000000001
   342   1      12.495000000000006      58.905000000000008      49.980000000000004
   343   1      10.710000000000008      57.120000000000012      53.550000000000004
   344   1      10.710000000000008      58.905000000000008      55.335000000000001
   345   1      12.495000000000006      57.120000000000012      55.335000000000001
   346   1      12.495000000000006      58.905000000000008      53.550000000000004
   347   1      10.710000000000008      57.120000000000012      57.120000000000012
   348   1      10.710000000000008      58.905000000000008      58.905000000000008
   349   1      12.495000000000006      57.120000000000012      58.905000000000008
   350   1      12.495000000000006      58.905000000000008      57.120000000000012
   351   1      10.710000000000008      57.120000000000012      60.690000000000005
   352   1      10.710000000000008      58.905000000000008      62.475000000000001
   353   1      12.495000000000006      57.120000000000012      62.475000000000001
   354   1      12.495000000000006      58.905000000000008      60.690000000000005
   355   1      10.710000000000008      57.120000000000012      64.260000000000005
   356   1      10.710000000000008      58.905000000000008      66.045000000000002
   357   1      12.495000000000006      57.120000000000012      66.045000000000002
   358   1      12.495000000000006      58.905000000000008      64.260000000000005