model_files/PtCu/PtCu_30000/PtCu_553/PtCu_553_fcc_29881_temp.data (written by ASE) 

29881 	 atoms 
2  atom types
0.0                     125  xlo xhi
0.0                     125  ylo yhi
0.0                     125  zlo zhi


Atoms 

     1   1      124.99999999999999       59.67499999999999       59.67499999999999
     2   1      1.9249999999999901      57.749999999999993       59.67499999999999
     3   1      1.9249999999999901       59.67499999999999      57.749999999999993
     4   1      124.99999999999999       59.67499999999999      63.524999999999999
     5   1      1.9249999999999901      57.749999999999993      63.524999999999999
     6   1      1.9249999999999901       59.67499999999999      61.599999999999994
     7   1      1.9249999999999901       59.67499999999999      65.449999999999989
     8   1      124.99999999999999      63.524999999999999       59.67499999999999
     9   1      1.9249999999999901      61.599999999999994       59.67499999999999
    10   1      1.9249999999999901      63.524999999999999      57.749999999999993
    11   1      124.99999999999999      61.599999999999994      61.599999999999994
    12   1      124.99999999999999      63.524999999999999      63.524999999999999
    13   1      1.9249999999999901      61.599999999999994      63.524999999999999
    14   1      1.9249999999999901      63.524999999999999      61.599999999999994
    15   1      1.9249999999999901      63.524999999999999      65.449999999999989
    16   1      1.9249999999999901      65.449999999999989       59.67499999999999
    17   1      1.9249999999999901      65.449999999999989      63.524999999999999
    18   1      3.8499999999999943      55.824999999999996       59.67499999999999
    19   1      5.7749999999999924      53.899999999999991       59.67499999999999
    20   1      5.7749999999999924      55.824999999999996      57.749999999999993
    21   1      3.8499999999999943      55.824999999999996      63.524999999999999
    22   1      5.7749999999999924      53.899999999999991      63.524999999999999
    23   1      5.7749999999999924      55.824999999999996      61.599999999999994
    24   1      5.7749999999999924      55.824999999999996      65.449999999999989
    25   1      3.8499999999999943       59.67499999999999      55.824999999999996
    26   1      5.7749999999999924      57.749999999999993      55.824999999999996
    27   1      5.7749999999999924       59.67499999999999      53.899999999999991
    28   1      3.8499999999999943      57.749999999999993      57.749999999999993
    29   1      3.8499999999999943       59.67499999999999       59.67499999999999
    30   1      5.7749999999999924      57.749999999999993       59.67499999999999
    31   1      5.7749999999999924       59.67499999999999      57.749999999999993
    32   1      3.8499999999999943      57.749999999999993      61.599999999999994
    33   1      3.8499999999999943       59.67499999999999      63.524999999999999
    34   1      5.7749999999999924      57.749999999999993      63.524999999999999
    35   1      5.7749999999999924       59.67499999999999      61.599999999999994
    36   1      3.8499999999999943      57.749999999999993      65.449999999999989
    37   1      3.8499999999999943       59.67499999999999      67.374999999999986
    38   1      5.7749999999999924      57.749999999999993      67.374999999999986
    39   1      5.7749999999999924       59.67499999999999      65.449999999999989
    40   1      5.7749999999999924       59.67499999999999      69.299999999999997
    41   1      3.8499999999999943      63.524999999999999      55.824999999999996
    42   1      5.7749999999999924      61.599999999999994      55.824999999999996
    43   1      5.7749999999999924      63.524999999999999      53.899999999999991
    44   1      3.8499999999999943      61.599999999999994      57.749999999999993
    45   1      3.8499999999999943      63.524999999999999       59.67499999999999
    46   1      5.7749999999999924      61.599999999999994       59.67499999999999
    47   1      5.7749999999999924      63.524999999999999      57.749999999999993
    48   1      3.8499999999999943      61.599999999999994      61.599999999999994
    49   1      3.8499999999999943      63.524999999999999      63.524999999999999
    50   1      5.7749999999999924      61.599999999999994      63.524999999999999
    51   1      5.7749999999999924      63.524999999999999      61.599999999999994
    52   1      3.8499999999999943      61.599999999999994      65.449999999999989
    53   1      3.8499999999999943      63.524999999999999      67.374999999999986
    54   1      5.7749999999999924      61.599999999999994      67.374999999999986
    55   1      5.7749999999999924      63.524999999999999      65.449999999999989
    56   1      5.7749999999999924      63.524999999999999      69.299999999999997
    57   1      5.7749999999999924      65.449999999999989      55.824999999999996
    58   1      3.8499999999999943      65.449999999999989      57.749999999999993
    59   1      3.8499999999999943      67.374999999999986       59.67499999999999
    60   1      5.7749999999999924      65.449999999999989       59.67499999999999
    61   1      5.7749999999999924      67.374999999999986      57.749999999999993
    62   1      3.8499999999999943      65.449999999999989      61.599999999999994
    63   1      3.8499999999999943      67.374999999999986      63.524999999999999
    64   1      5.7749999999999924      65.449999999999989      63.524999999999999
    65   1      5.7749999999999924      67.374999999999986      61.599999999999994
    66   1      3.8499999999999943      65.449999999999989      65.449999999999989
    67   1      5.7749999999999924      65.449999999999989      67.374999999999986
    68   1      5.7749999999999924      67.374999999999986      65.449999999999989
    69   1      5.7749999999999924      69.299999999999997       59.67499999999999
    70   1      5.7749999999999924      69.299999999999997      63.524999999999999
    71   1      7.6999999999999886      51.974999999999987       59.67499999999999
    72   1      9.6249999999999929       50.04999999999999       59.67499999999999
    73   1      9.6249999999999929      51.974999999999987      57.749999999999993
    74   1      7.6999999999999886      51.974999999999987      63.524999999999999
    75   1      9.6249999999999929       50.04999999999999      63.524999999999999
    76   1      9.6249999999999929      51.974999999999987      61.599999999999994
    77   1      9.6249999999999929      51.974999999999987      65.449999999999989
    78   1      7.6999999999999886      55.824999999999996      55.824999999999996
    79   1      9.6249999999999929      53.899999999999991      55.824999999999996
    80   1      9.6249999999999929      55.824999999999996      53.899999999999991
    81   1      7.6999999999999886      53.899999999999991      57.749999999999993
    82   1      7.6999999999999886      55.824999999999996       59.67499999999999
    83   1      9.6249999999999929      53.899999999999991       59.67499999999999
    84   1      9.6249999999999929      55.824999999999996      57.749999999999993
    85   1      7.6999999999999886      53.899999999999991      61.599999999999994
    86   1      7.6999999999999886      55.824999999999996      63.524999999999999
    87   1      9.6249999999999929      53.899999999999991      63.524999999999999
    88   1      9.6249999999999929      55.824999999999996      61.599999999999994
    89   1      7.6999999999999886      53.899999999999991      65.449999999999989
    90   1      7.6999999999999886      55.824999999999996      67.374999999999986
    91   1      9.6249999999999929      53.899999999999991      67.374999999999986
    92   1      9.6249999999999929      55.824999999999996      65.449999999999989
    93   1      9.6249999999999929      55.824999999999996      69.299999999999997
    94   1      7.6999999999999886       59.67499999999999      51.974999999999987
    95   1      9.6249999999999929      57.749999999999993      51.974999999999987
    96   1      9.6249999999999929       59.67499999999999       50.04999999999999
    97   1      7.6999999999999886      57.749999999999993      53.899999999999991
    98   1      7.6999999999999886       59.67499999999999      55.824999999999996
    99   1      9.6249999999999929      57.749999999999993      55.824999999999996
   100   1      9.6249999999999929       59.67499999999999      53.899999999999991
   101   1      7.6999999999999886      57.749999999999993      57.749999999999993
   102   1      7.6999999999999886       59.67499999999999       59.67499999999999
   103   1      9.6249999999999929      57.749999999999993       59.67499999999999
   104   1      9.6249999999999929       59.67499999999999      57.749999999999993
   105   1      7.6999999999999886      57.749999999999993      61.599999999999994
   106   1      7.6999999999999886       59.67499999999999      63.524999999999999
   107   1      9.6249999999999929      57.749999999999993      63.524999999999999
   108   1      9.6249999999999929       59.67499999999999      61.599999999999994
   109   1      7.6999999999999886      57.749999999999993      65.449999999999989
   110   1      7.6999999999999886       59.67499999999999      67.374999999999986
   111   1      9.6249999999999929      57.749999999999993      67.374999999999986
   112   1      9.6249999999999929       59.67499999999999      65.449999999999989
   113   1      7.6999999999999886      57.749999999999993      69.299999999999997
   114   1      7.6999999999999886       59.67499999999999      71.224999999999994
   115   1      9.6249999999999929      57.749999999999993      71.224999999999994
   116   1      9.6249999999999929       59.67499999999999      69.299999999999997
   117   1      9.6249999999999929       59.67499999999999      73.149999999999991
   118   1      7.6999999999999886      63.524999999999999      51.974999999999987
   119   1      9.6249999999999929      61.599999999999994      51.974999999999987
   120   1      9.6249999999999929      63.524999999999999       50.04999999999999
   121   1      7.6999999999999886      61.599999999999994      53.899999999999991
   122   1      7.6999999999999886      63.524999999999999      55.824999999999996
   123   1      9.6249999999999929      61.599999999999994      55.824999999999996
   124   1      9.6249999999999929      63.524999999999999      53.899999999999991
   125   1      7.6999999999999886      61.599999999999994      57.749999999999993
   126   1      7.6999999999999886      63.524999999999999       59.67499999999999
   127   1      9.6249999999999929      61.599999999999994       59.67499999999999
   128   1      9.6249999999999929      63.524999999999999      57.749999999999993
   129   1      7.6999999999999886      61.599999999999994      61.599999999999994
   130   1      7.6999999999999886      63.524999999999999      63.524999999999999
   131   1      9.6249999999999929      61.599999999999994      63.524999999999999
   132   1      9.6249999999999929      63.524999999999999      61.599999999999994
   133   1      7.6999999999999886      61.599999999999994      65.449999999999989
   134   1      7.6999999999999886      63.524999999999999      67.374999999999986
   135   1      9.6249999999999929      61.599999999999994      67.374999999999986
   136   1      9.6249999999999929      63.524999999999999      65.449999999999989
   137   1      7.6999999999999886      61.599999999999994      69.299999999999997
   138   1      7.6999999999999886      63.524999999999999      71.224999999999994
   139   1      9.6249999999999929      61.599999999999994      71.224999999999994
   140   1      9.6249999999999929      63.524999999999999      69.299999999999997
   141   1      9.6249999999999929      63.524999999999999      73.149999999999991
   142   1      9.6249999999999929      65.449999999999989      51.974999999999987
   143   1      7.6999999999999886      65.449999999999989      53.899999999999991
   144   1      7.6999999999999886      67.374999999999986      55.824999999999996
   145   1      9.6249999999999929      65.449999999999989      55.824999999999996
   146   1      9.6249999999999929      67.374999999999986      53.899999999999991
   147   1      7.6999999999999886      65.449999999999989      57.749999999999993
   148   1      7.6999999999999886      67.374999999999986       59.67499999999999
   149   1      9.6249999999999929      65.449999999999989       59.67499999999999
   150   1      9.6249999999999929      67.374999999999986      57.749999999999993
   151   1      7.6999999999999886      65.449999999999989      61.599999999999994
   152   1      7.6999999999999886      67.374999999999986      63.524999999999999
   153   1      9.6249999999999929      65.449999999999989      63.524999999999999
   154   1      9.6249999999999929      67.374999999999986      61.599999999999994
   155   1      7.6999999999999886      65.449999999999989      65.449999999999989
   156   1      7.6999999999999886      67.374999999999986      67.374999999999986
   157   1      9.6249999999999929      65.449999999999989      67.374999999999986
   158   1      9.6249999999999929      67.374999999999986      65.449999999999989
   159   1      7.6999999999999886      65.449999999999989      69.299999999999997
   160   1      9.6249999999999929      65.449999999999989      71.224999999999994
   161   1      9.6249999999999929      67.374999999999986      69.299999999999997
   162   1      9.6249999999999929      69.299999999999997      55.824999999999996
   163   1      7.6999999999999886      69.299999999999997      57.749999999999993
   164   1      7.6999999999999886      71.224999999999994       59.67499999999999
   165   1      9.6249999999999929      69.299999999999997       59.67499999999999
   166   1      9.6249999999999929      71.224999999999994      57.749999999999993
   167   1      7.6999999999999886      69.299999999999997      61.599999999999994
   168   1      7.6999999999999886      71.224999999999994      63.524999999999999
   169   1      9.6249999999999929      69.299999999999997      63.524999999999999
   170   1      9.6249999999999929      71.224999999999994      61.599999999999994
   171   1      7.6999999999999886      69.299999999999997      65.449999999999989
   172   1      9.6249999999999929      69.299999999999997      67.374999999999986
   173   1      9.6249999999999929      71.224999999999994      65.449999999999989
   174   1      9.6249999999999929      73.149999999999991       59.67499999999999
   175   1      9.6249999999999929      73.149999999999991      63.524999999999999
   176   1       11.54999999999999      48.124999999999993       59.67499999999999
   177   1      13.474999999999994      46.199999999999996       59.67499999999999
   178   1      13.474999999999994      48.124999999999993      57.749999999999993
   179   1       11.54999999999999      48.124999999999993      63.524999999999999
   180   1      13.474999999999994      46.199999999999996      63.524999999999999
   181   1      13.474999999999994      48.124999999999993      61.599999999999994
   182   1      13.474999999999994      48.124999999999993      65.449999999999989
   183   1       11.54999999999999      51.974999999999987      55.824999999999996
   184   1      13.474999999999994       50.04999999999999      55.824999999999996
   185   1      13.474999999999994      51.974999999999987      53.899999999999991
   186   1       11.54999999999999       50.04999999999999      57.749999999999993
   187   1       11.54999999999999      51.974999999999987       59.67499999999999
   188   1      13.474999999999994       50.04999999999999       59.67499999999999
   189   1      13.474999999999994      51.974999999999987      57.749999999999993
   190   1       11.54999999999999       50.04999999999999      61.599999999999994
   191   1       11.54999999999999      51.974999999999987      63.524999999999999
   192   1      13.474999999999994       50.04999999999999      63.524999999999999
   193   1      13.474999999999994      51.974999999999987      61.599999999999994
   194   1       11.54999999999999       50.04999999999999      65.449999999999989
   195   1       11.54999999999999      51.974999999999987      67.374999999999986
   196   1      13.474999999999994       50.04999999999999      67.374999999999986
   197   1      13.474999999999994      51.974999999999987      65.449999999999989
   198   1      13.474999999999994      51.974999999999987      69.299999999999997
   199   1       11.54999999999999      55.824999999999996      51.974999999999987
   200   1      13.474999999999994      53.899999999999991      51.974999999999987
   201   1      13.474999999999994      55.824999999999996       50.04999999999999
   202   1       11.54999999999999      53.899999999999991      53.899999999999991
   203   1       11.54999999999999      55.824999999999996      55.824999999999996
   204   1      13.474999999999994      53.899999999999991      55.824999999999996
   205   1      13.474999999999994      55.824999999999996      53.899999999999991
   206   1       11.54999999999999      53.899999999999991      57.749999999999993
   207   1       11.54999999999999      55.824999999999996       59.67499999999999
   208   1      13.474999999999994      53.899999999999991       59.67499999999999
   209   1      13.474999999999994      55.824999999999996      57.749999999999993
   210   1       11.54999999999999      53.899999999999991      61.599999999999994
   211   1       11.54999999999999      55.824999999999996      63.524999999999999
   212   1      13.474999999999994      53.899999999999991      63.524999999999999
   213   1      13.474999999999994      55.824999999999996      61.599999999999994
   214   1       11.54999999999999      53.899999999999991      65.449999999999989
   215   1       11.54999999999999      55.824999999999996      67.374999999999986
   216   1      13.474999999999994      53.899999999999991      67.374999999999986
   217   1      13.474999999999994      55.824999999999996      65.449999999999989
   218   1       11.54999999999999      53.899999999999991      69.299999999999997
   219   1       11.54999999999999      55.824999999999996      71.224999999999994
   220   1      13.474999999999994      53.899999999999991      71.224999999999994
   221   1      13.474999999999994      55.824999999999996      69.299999999999997
   222   1      13.474999999999994      55.824999999999996      73.149999999999991
   223   1       11.54999999999999       59.67499999999999      48.124999999999993
   224   1      13.474999999999994      57.749999999999993      48.124999999999993
   225   1      13.474999999999994       59.67499999999999      46.199999999999996
   226   1       11.54999999999999      57.749999999999993       50.04999999999999
   227   1       11.54999999999999       59.67499999999999      51.974999999999987
   228   1      13.474999999999994      57.749999999999993      51.974999999999987
   229   1      13.474999999999994       59.67499999999999       50.04999999999999
   230   1       11.54999999999999      57.749999999999993      53.899999999999991
   231   1       11.54999999999999       59.67499999999999      55.824999999999996
   232   1      13.474999999999994      57.749999999999993      55.824999999999996
   233   1      13.474999999999994       59.67499999999999      53.899999999999991
   234   1       11.54999999999999      57.749999999999993      57.749999999999993
   235   1       11.54999999999999       59.67499999999999       59.67499999999999
   236   1      13.474999999999994      57.749999999999993       59.67499999999999
   237   1      13.474999999999994       59.67499999999999      57.749999999999993
   238   1       11.54999999999999      57.749999999999993      61.599999999999994
   239   1       11.54999999999999       59.67499999999999      63.524999999999999
   240   1      13.474999999999994      57.749999999999993      63.524999999999999
   241   1      13.474999999999994       59.67499999999999      61.599999999999994
   242   1       11.54999999999999      57.749999999999993      65.449999999999989
   243   1       11.54999999999999       59.67499999999999      67.374999999999986
   244   1      13.474999999999994      57.749999999999993      67.374999999999986
   245   1      13.474999999999994       59.67499999999999      65.449999999999989
   246   1       11.54999999999999      57.749999999999993      69.299999999999997
   247   1       11.54999999999999       59.67499999999999      71.224999999999994
   248   1      13.474999999999994      57.749999999999993      71.224999999999994
   249   1      13.474999999999994       59.67499999999999      69.299999999999997
   250   1       11.54999999999999      57.749999999999993      73.149999999999991
   251   1       11.54999999999999       59.67499999999999      75.074999999999989
   252   1      13.474999999999994      57.749999999999993      75.074999999999989
   253   1      13.474999999999994       59.67499999999999      73.149999999999991
   254   1      13.474999999999994       59.67499999999999                      77
   255   1       11.54999999999999      63.524999999999999      48.124999999999993
   256   1      13.474999999999994      61.599999999999994      48.124999999999993
   257   1      13.474999999999994      63.524999999999999      46.199999999999996
   258   1       11.54999999999999      61.599999999999994       50.04999999999999
   259   1       11.54999999999999      63.524999999999999      51.974999999999987
   260   1      13.474999999999994      61.599999999999994      51.974999999999987
   261   1      13.474999999999994      63.524999999999999       50.04999999999999
   262   1       11.54999999999999      61.599999999999994      53.899999999999991
   263   1       11.54999999999999      63.524999999999999      55.824999999999996
   264   1      13.474999999999994      61.599999999999994      55.824999999999996
   265   1      13.474999999999994      63.524999999999999      53.899999999999991
   266   1       11.54999999999999      61.599999999999994      57.749999999999993
   267   1       11.54999999999999      63.524999999999999       59.67499999999999
   268   1      13.474999999999994      61.599999999999994       59.67499999999999
   269   1      13.474999999999994      63.524999999999999      57.749999999999993
   270   1       11.54999999999999      61.599999999999994      61.599999999999994
   271   1       11.54999999999999      63.524999999999999      63.524999999999999
   272   1      13.474999999999994      61.599999999999994      63.524999999999999
   273   1      13.474999999999994      63.524999999999999      61.599999999999994
   274   1       11.54999999999999      61.599999999999994      65.449999999999989
   275   1       11.54999999999999      63.524999999999999      67.374999999999986
   276   1      13.474999999999994      61.599999999999994      67.374999999999986
   277   1      13.474999999999994      63.524999999999999      65.449999999999989
   278   1       11.54999999999999      61.599999999999994      69.299999999999997
   279   1       11.54999999999999      63.524999999999999      71.224999999999994
   280   1      13.474999999999994      61.599999999999994      71.224999999999994
   281   1      13.474999999999994      63.524999999999999      69.299999999999997
   282   1       11.54999999999999      61.599999999999994      73.149999999999991
   283   1       11.54999999999999      63.524999999999999      75.074999999999989
   284   1      13.474999999999994      61.599999999999994      75.074999999999989
   285   1      13.474999999999994      63.524999999999999      73.149999999999991
   286   1      13.474999999999994      63.524999999999999                      77
   287   1      13.474999999999994      65.449999999999989      48.124999999999993
   288   1       11.54999999999999      65.449999999999989       50.04999999999999
   289   1       11.54999999999999      67.374999999999986      51.974999999999987
   290   1      13.474999999999994      65.449999999999989      51.974999999999987
   291   1      13.474999999999994      67.374999999999986       50.04999999999999
   292   1       11.54999999999999      65.449999999999989      53.899999999999991
   293   1       11.54999999999999      67.374999999999986      55.824999999999996
   294   1      13.474999999999994      65.449999999999989      55.824999999999996
   295   1      13.474999999999994      67.374999999999986      53.899999999999991
   296   1       11.54999999999999      65.449999999999989      57.749999999999993
   297   1       11.54999999999999      67.374999999999986       59.67499999999999
   298   1      13.474999999999994      65.449999999999989       59.67499999999999
   299   1      13.474999999999994      67.374999999999986      57.749999999999993
   300   1       11.54999999999999      65.449999999999989      61.599999999999994
   301   1       11.54999999999999      67.374999999999986      63.524999999999999
   302   1      13.474999999999994      65.449999999999989      63.524999999999999
   303   1      13.474999999999994      67.374999999999986      61.599999999999994
   304   1       11.54999999999999      65.449999999999989      65.449999999999989
   305   1       11.54999999999999      67.374999999999986      67.374999999999986
   306   1      13.474999999999994      65.449999999999989      67.374999999999986
   307   1      13.474999999999994      67.374999999999986      65.449999999999989
   308   1       11.54999999999999      65.449999999999989      69.299999999999997
   309   1       11.54999999999999      67.374999999999986      71.224999999999994
   310   1      13.474999999999994      65.449999999999989      71.224999999999994
   311   1      13.474999999999994      67.374999999999986      69.299999999999997
   312   1       11.54999999999999      65.449999999999989      73.149999999999991
   313   1      13.474999999999994      65.449999999999989      75.074999999999989
   314   1      13.474999999999994      67.374999999999986      73.149999999999991
   315   1      13.474999999999994      69.299999999999997      51.974999999999987
   316   1       11.54999999999999      69.299999999999997      53.899999999999991
   317   1       11.54999999999999      71.224999999999994      55.824999999999996
   318   1      13.474999999999994      69.299999999999997      55.824999999999996
   319   1      13.474999999999994      71.224999999999994      53.899999999999991
   320   1       11.54999999999999      69.299999999999997      57.749999999999993
   321   1       11.54999999999999      71.224999999999994       59.67499999999999
   322   1      13.474999999999994      69.299999999999997       59.67499999999999
   323   1      13.474999999999994      71.224999999999994      57.749999999999993
   324   1       11.54999999999999      69.299999999999997      61.599999999999994
   325   1       11.54999999999999      71.224999999999994      63.524999999999999
   326   1      13.474999999999994      69.299999999999997      63.524999999999999
   327   1      13.474999999999994      71.224999999999994      61.599999999999994
   328   1       11.54999999999999      69.299999999999997      65.449999999999989
   329   1       11.54999999999999      71.224999999999994      67.374999999999986
   330   1      13.474999999999994      69.299999999999997      67.374999999999986
   331   1      13.474999999999994      71.224999999999994      65.449999999999989
   332   1       11.54999999999999      69.299999999999997      69.299999999999997
   333   1      13.474999999999994      69.299999999999997      71.224999999999994
   334   1      13.474999999999994      71.224999999999994      69.299999999999997
   335   1      13.474999999999994      73.149999999999991      55.824999999999996
   336   1       11.54999999999999      73.149999999999991      57.749999999999993
   337   1       11.54999999999999      75.074999999999989       59.67499999999999
   338   1      13.474999999999994      73.149999999999991       59.67499999999999
   339   1      13.474999999999994      75.074999999999989      57.749999999999993
   340   1       11.54999999999999      73.149999999999991      61.599999999999994
   341   1       11.54999999999999      75.074999999999989      63.524999999999999
   342   1      13.474999999999994      73.149999999999991      63.524999999999999
   343   1      13.474999999999994      75.074999999999989      61.599999999999994
   344   1       11.54999999999999      73.149999999999991      65.449999999999989
   345   1      13.474999999999994      73.149999999999991      67.374999999999986
   346   1      13.474999999999994      75.074999999999989      65.449999999999989
   347   1      13.474999999999994                      77       59.67499999999999
   348   1      13.474999999999994                      77      63.524999999999999
   349   1      15.399999999999991      44.274999999999991       59.67499999999999
   350   1      17.324999999999989      42.349999999999994       59.67499999999999
   351   1      17.324999999999989      44.274999999999991      57.749999999999993
   352   1      15.399999999999991      44.274999999999991      63.524999999999999
   353   1      17.324999999999989      42.349999999999994      63.524999999999999
   354   1      17.324999999999989      44.274999999999991      61.599999999999994
   355   1      17.324999999999989      44.274999999999991      65.449999999999989
   356   1      17.324999999999989      48.124999999999993       50.04999999999999
   357   1      15.399999999999991      48.124999999999993      55.824999999999996
   358   1      17.324999999999989      46.199999999999996      55.824999999999996