model_files/Au/Au_30000/Au_211/data.Au_211_fcc_30069 (written by ASE) 

30069 	 atoms 
1  atom types
0.0                     114  xlo xhi
0.0                     114  ylo yhi
0.0                     114  zlo zhi


Atoms 

     1   1      2.0399999999999991      55.079999999999998      57.120000000000005
     2   1      2.0399999999999991      57.120000000000005      55.079999999999998
     3   1                       0      57.120000000000005      57.120000000000005
     4   1      2.0399999999999991      57.120000000000005      59.159999999999997
     5   1      2.0399999999999991      59.159999999999997      57.120000000000005
     6   1      6.1200000000000045      46.920000000000002      57.120000000000005
     7   1      4.0799999999999983      50.999999999999993      55.079999999999998
     8   1      6.1200000000000045      48.959999999999994      55.079999999999998
     9   1      6.1200000000000045      50.999999999999993      53.040000000000006
    10   1      4.0799999999999983      48.959999999999994      57.120000000000005
    11   1      4.0799999999999983      50.999999999999993      59.159999999999997
    12   1      6.1200000000000045      48.959999999999994      59.159999999999997
    13   1      6.1200000000000045      50.999999999999993      57.120000000000005
    14   1      6.1200000000000045      50.999999999999993      61.200000000000003
    15   1      4.0799999999999983      55.079999999999998      50.999999999999993
    16   1      6.1200000000000045      53.040000000000006      50.999999999999993
    17   1      6.1200000000000045      55.079999999999998      48.959999999999994
    18   1      4.0799999999999983      53.040000000000006      53.040000000000006
    19   1      4.0799999999999983      55.079999999999998      55.079999999999998
    20   1      6.1200000000000045      53.040000000000006      55.079999999999998
    21   1      6.1200000000000045      55.079999999999998      53.040000000000006
    22   1      4.0799999999999983      53.040000000000006      57.120000000000005
    23   1      4.0799999999999983      55.079999999999998      59.159999999999997
    24   1      6.1200000000000045      53.040000000000006      59.159999999999997
    25   1      6.1200000000000045      55.079999999999998      57.120000000000005
    26   1      4.0799999999999983      53.040000000000006      61.200000000000003
    27   1      4.0799999999999983      55.079999999999998      63.240000000000002
    28   1      6.1200000000000045      53.040000000000006      63.240000000000002
    29   1      6.1200000000000045      55.079999999999998      61.200000000000003
    30   1      6.1200000000000045      55.079999999999998      65.280000000000001
    31   1      6.1200000000000045      57.120000000000005      46.920000000000002
    32   1      4.0799999999999983      57.120000000000005      48.959999999999994
    33   1      4.0799999999999983      59.159999999999997      50.999999999999993
    34   1      6.1200000000000045      57.120000000000005      50.999999999999993
    35   1      6.1200000000000045      59.159999999999997      48.959999999999994
    36   1      4.0799999999999983      57.120000000000005      53.040000000000006
    37   1      4.0799999999999983      59.159999999999997      55.079999999999998
    38   1      6.1200000000000045      57.120000000000005      55.079999999999998
    39   1      6.1200000000000045      59.159999999999997      53.040000000000006
    40   1      4.0799999999999983      57.120000000000005      57.120000000000005
    41   1      4.0799999999999983      59.159999999999997      59.159999999999997
    42   1      6.1200000000000045      57.120000000000005      59.159999999999997
    43   1      6.1200000000000045      59.159999999999997      57.120000000000005
    44   1      4.0799999999999983      57.120000000000005      61.200000000000003
    45   1      4.0799999999999983      59.159999999999997      63.240000000000002
    46   1      6.1200000000000045      57.120000000000005      63.240000000000002
    47   1      6.1200000000000045      59.159999999999997      61.200000000000003
    48   1      4.0799999999999983      57.120000000000005      65.280000000000001
    49   1      6.1200000000000045      57.120000000000005      67.319999999999993
    50   1      6.1200000000000045      59.159999999999997      65.280000000000001
    51   1      6.1200000000000045      61.200000000000003      50.999999999999993
    52   1      4.0799999999999983      61.200000000000003      53.040000000000006
    53   1      4.0799999999999983      63.240000000000002      55.079999999999998
    54   1      6.1200000000000045      61.200000000000003      55.079999999999998
    55   1      6.1200000000000045      63.240000000000002      53.040000000000006
    56   1      4.0799999999999983      61.200000000000003      57.120000000000005
    57   1      4.0799999999999983      63.240000000000002      59.159999999999997
    58   1      6.1200000000000045      61.200000000000003      59.159999999999997
    59   1      6.1200000000000045      63.240000000000002      57.120000000000005
    60   1      4.0799999999999983      61.200000000000003      61.200000000000003
    61   1      6.1200000000000045      61.200000000000003      63.240000000000002
    62   1      6.1200000000000045      63.240000000000002      61.200000000000003
    63   1      6.1200000000000045      65.280000000000001      55.079999999999998
    64   1      4.0799999999999983      65.280000000000001      57.120000000000005
    65   1      6.1200000000000045      65.280000000000001      59.159999999999997
    66   1      6.1200000000000045      67.319999999999993      57.120000000000005
    67   1      10.200000000000001      38.759999999999998      57.120000000000005
    68   1      8.1600000000000019      42.840000000000003      55.079999999999998
    69   1      10.200000000000001      40.799999999999997      55.079999999999998
    70   1      10.200000000000001      42.840000000000003      53.040000000000006
    71   1      8.1600000000000019      40.799999999999997      57.120000000000005
    72   1      8.1600000000000019      42.840000000000003      59.159999999999997
    73   1      10.200000000000001      40.799999999999997      59.159999999999997
    74   1      10.200000000000001      42.840000000000003      57.120000000000005
    75   1      10.200000000000001      42.840000000000003      61.200000000000003
    76   1      8.1600000000000019      46.920000000000002      50.999999999999993
    77   1      10.200000000000001      44.880000000000003      50.999999999999993
    78   1      10.200000000000001      46.920000000000002      48.959999999999994
    79   1      8.1600000000000019      44.880000000000003      53.040000000000006
    80   1      8.1600000000000019      46.920000000000002      55.079999999999998
    81   1      10.200000000000001      44.880000000000003      55.079999999999998
    82   1      10.200000000000001      46.920000000000002      53.040000000000006
    83   1      8.1600000000000019      44.880000000000003      57.120000000000005
    84   1      8.1600000000000019      46.920000000000002      59.159999999999997
    85   1      10.200000000000001      44.880000000000003      59.159999999999997
    86   1      10.200000000000001      46.920000000000002      57.120000000000005
    87   1      8.1600000000000019      44.880000000000003      61.200000000000003
    88   1      8.1600000000000019      46.920000000000002      63.240000000000002
    89   1      10.200000000000001      44.880000000000003      63.240000000000002
    90   1      10.200000000000001      46.920000000000002      61.200000000000003
    91   1      10.200000000000001      46.920000000000002      65.280000000000001
    92   1      8.1600000000000019      50.999999999999993      46.920000000000002
    93   1      10.200000000000001      48.959999999999994      46.920000000000002
    94   1      10.200000000000001      50.999999999999993      44.880000000000003
    95   1      8.1600000000000019      48.959999999999994      48.959999999999994
    96   1      8.1600000000000019      50.999999999999993      50.999999999999993
    97   1      10.200000000000001      48.959999999999994      50.999999999999993
    98   1      10.200000000000001      50.999999999999993      48.959999999999994
    99   1      8.1600000000000019      48.959999999999994      53.040000000000006
   100   1      8.1600000000000019      50.999999999999993      55.079999999999998
   101   1      10.200000000000001      48.959999999999994      55.079999999999998
   102   1      10.200000000000001      50.999999999999993      53.040000000000006
   103   1      8.1600000000000019      48.959999999999994      57.120000000000005
   104   1      8.1600000000000019      50.999999999999993      59.159999999999997
   105   1      10.200000000000001      48.959999999999994      59.159999999999997
   106   1      10.200000000000001      50.999999999999993      57.120000000000005
   107   1      8.1600000000000019      48.959999999999994      61.200000000000003
   108   1      8.1600000000000019      50.999999999999993      63.240000000000002
   109   1      10.200000000000001      48.959999999999994      63.240000000000002
   110   1      10.200000000000001      50.999999999999993      61.200000000000003
   111   1      8.1600000000000019      48.959999999999994      65.280000000000001
   112   1      8.1600000000000019      50.999999999999993      67.319999999999993
   113   1      10.200000000000001      48.959999999999994      67.319999999999993
   114   1      10.200000000000001      50.999999999999993      65.280000000000001
   115   1      10.200000000000001      50.999999999999993      69.359999999999985
   116   1      8.1600000000000019      55.079999999999998      42.840000000000003
   117   1      10.200000000000001      53.040000000000006      42.840000000000003
   118   1      10.200000000000001      55.079999999999998      40.799999999999997
   119   1      8.1600000000000019      53.040000000000006      44.880000000000003
   120   1      8.1600000000000019      55.079999999999998      46.920000000000002
   121   1      10.200000000000001      53.040000000000006      46.920000000000002
   122   1      10.200000000000001      55.079999999999998      44.880000000000003
   123   1      8.1600000000000019      53.040000000000006      48.959999999999994
   124   1      8.1600000000000019      55.079999999999998      50.999999999999993
   125   1      10.200000000000001      53.040000000000006      50.999999999999993
   126   1      10.200000000000001      55.079999999999998      48.959999999999994
   127   1      8.1600000000000019      53.040000000000006      53.040000000000006
   128   1      8.1600000000000019      55.079999999999998      55.079999999999998
   129   1      10.200000000000001      53.040000000000006      55.079999999999998
   130   1      10.200000000000001      55.079999999999998      53.040000000000006
   131   1      8.1600000000000019      53.040000000000006      57.120000000000005
   132   1      8.1600000000000019      55.079999999999998      59.159999999999997
   133   1      10.200000000000001      53.040000000000006      59.159999999999997
   134   1      10.200000000000001      55.079999999999998      57.120000000000005
   135   1      8.1600000000000019      53.040000000000006      61.200000000000003
   136   1      8.1600000000000019      55.079999999999998      63.240000000000002
   137   1      10.200000000000001      53.040000000000006      63.240000000000002
   138   1      10.200000000000001      55.079999999999998      61.200000000000003
   139   1      8.1600000000000019      53.040000000000006      65.280000000000001
   140   1      8.1600000000000019      55.079999999999998      67.319999999999993
   141   1      10.200000000000001      53.040000000000006      67.319999999999993
   142   1      10.200000000000001      55.079999999999998      65.280000000000001
   143   1      8.1600000000000019      53.040000000000006      69.359999999999985
   144   1      8.1600000000000019      55.079999999999998      71.400000000000006
   145   1      10.200000000000001      53.040000000000006      71.400000000000006
   146   1      10.200000000000001      55.079999999999998      69.359999999999985
   147   1      10.200000000000001      55.079999999999998      73.439999999999998
   148   1      10.200000000000001      57.120000000000005      38.759999999999998
   149   1      8.1600000000000019      57.120000000000005      40.799999999999997
   150   1      8.1600000000000019      59.159999999999997      42.840000000000003
   151   1      10.200000000000001      57.120000000000005      42.840000000000003
   152   1      10.200000000000001      59.159999999999997      40.799999999999997
   153   1      8.1600000000000019      57.120000000000005      44.880000000000003
   154   1      8.1600000000000019      59.159999999999997      46.920000000000002
   155   1      10.200000000000001      57.120000000000005      46.920000000000002
   156   1      10.200000000000001      59.159999999999997      44.880000000000003
   157   1      8.1600000000000019      57.120000000000005      48.959999999999994
   158   1      8.1600000000000019      59.159999999999997      50.999999999999993
   159   1      10.200000000000001      57.120000000000005      50.999999999999993
   160   1      10.200000000000001      59.159999999999997      48.959999999999994
   161   1      8.1600000000000019      57.120000000000005      53.040000000000006
   162   1      8.1600000000000019      59.159999999999997      55.079999999999998
   163   1      10.200000000000001      57.120000000000005      55.079999999999998
   164   1      10.200000000000001      59.159999999999997      53.040000000000006
   165   1      8.1600000000000019      57.120000000000005      57.120000000000005
   166   1      8.1600000000000019      59.159999999999997      59.159999999999997
   167   1      10.200000000000001      57.120000000000005      59.159999999999997
   168   1      10.200000000000001      59.159999999999997      57.120000000000005
   169   1      8.1600000000000019      57.120000000000005      61.200000000000003
   170   1      8.1600000000000019      59.159999999999997      63.240000000000002
   171   1      10.200000000000001      57.120000000000005      63.240000000000002
   172   1      10.200000000000001      59.159999999999997      61.200000000000003
   173   1      8.1600000000000019      57.120000000000005      65.280000000000001
   174   1      8.1600000000000019      59.159999999999997      67.319999999999993
   175   1      10.200000000000001      57.120000000000005      67.319999999999993
   176   1      10.200000000000001      59.159999999999997      65.280000000000001
   177   1      8.1600000000000019      57.120000000000005      69.359999999999985
   178   1      8.1600000000000019      59.159999999999997      71.400000000000006
   179   1      10.200000000000001      57.120000000000005      71.400000000000006
   180   1      10.200000000000001      59.159999999999997      69.359999999999985
   181   1      8.1600000000000019      57.120000000000005      73.439999999999998
   182   1      10.200000000000001      57.120000000000005      75.480000000000004
   183   1      10.200000000000001      59.159999999999997      73.439999999999998
   184   1      10.200000000000001      61.200000000000003      42.840000000000003
   185   1      8.1600000000000019      61.200000000000003      44.880000000000003
   186   1      8.1600000000000019      63.240000000000002      46.920000000000002
   187   1      10.200000000000001      61.200000000000003      46.920000000000002
   188   1      10.200000000000001      63.240000000000002      44.880000000000003
   189   1      8.1600000000000019      61.200000000000003      48.959999999999994
   190   1      8.1600000000000019      63.240000000000002      50.999999999999993
   191   1      10.200000000000001      61.200000000000003      50.999999999999993
   192   1      10.200000000000001      63.240000000000002      48.959999999999994
   193   1      8.1600000000000019      61.200000000000003      53.040000000000006
   194   1      8.1600000000000019      63.240000000000002      55.079999999999998
   195   1      10.200000000000001      61.200000000000003      55.079999999999998
   196   1      10.200000000000001      63.240000000000002      53.040000000000006
   197   1      8.1600000000000019      61.200000000000003      57.120000000000005
   198   1      8.1600000000000019      63.240000000000002      59.159999999999997
   199   1      10.200000000000001      61.200000000000003      59.159999999999997
   200   1      10.200000000000001      63.240000000000002      57.120000000000005
   201   1      8.1600000000000019      61.200000000000003      61.200000000000003
   202   1      8.1600000000000019      63.240000000000002      63.240000000000002
   203   1      10.200000000000001      61.200000000000003      63.240000000000002
   204   1      10.200000000000001      63.240000000000002      61.200000000000003
   205   1      8.1600000000000019      61.200000000000003      65.280000000000001
   206   1      8.1600000000000019      63.240000000000002      67.319999999999993
   207   1      10.200000000000001      61.200000000000003      67.319999999999993
   208   1      10.200000000000001      63.240000000000002      65.280000000000001
   209   1      8.1600000000000019      61.200000000000003      69.359999999999985
   210   1      10.200000000000001      61.200000000000003      71.400000000000006
   211   1      10.200000000000001      63.240000000000002      69.359999999999985
   212   1      10.200000000000001      65.280000000000001      46.920000000000002
   213   1      8.1600000000000019      65.280000000000001      48.959999999999994
   214   1      8.1600000000000019      67.319999999999993      50.999999999999993
   215   1      10.200000000000001      65.280000000000001      50.999999999999993
   216   1      10.200000000000001      67.319999999999993      48.959999999999994
   217   1      8.1600000000000019      65.280000000000001      53.040000000000006
   218   1      8.1600000000000019      67.319999999999993      55.079999999999998
   219   1      10.200000000000001      65.280000000000001      55.079999999999998
   220   1      10.200000000000001      67.319999999999993      53.040000000000006
   221   1      8.1600000000000019      65.280000000000001      57.120000000000005
   222   1      8.1600000000000019      67.319999999999993      59.159999999999997
   223   1      10.200000000000001      65.280000000000001      59.159999999999997
   224   1      10.200000000000001      67.319999999999993      57.120000000000005
   225   1      8.1600000000000019      65.280000000000001      61.200000000000003
   226   1      8.1600000000000019      67.319999999999993      63.240000000000002
   227   1      10.200000000000001      65.280000000000001      63.240000000000002
   228   1      10.200000000000001      67.319999999999993      61.200000000000003
   229   1      8.1600000000000019      65.280000000000001      65.280000000000001
   230   1      10.200000000000001      65.280000000000001      67.319999999999993
   231   1      10.200000000000001      67.319999999999993      65.280000000000001
   232   1      10.200000000000001      69.359999999999985      50.999999999999993
   233   1      8.1600000000000019      69.359999999999985      53.040000000000006
   234   1      8.1600000000000019      71.400000000000006      55.079999999999998
   235   1      10.200000000000001      69.359999999999985      55.079999999999998
   236   1      10.200000000000001      71.400000000000006      53.040000000000006
   237   1      8.1600000000000019      69.359999999999985      57.120000000000005
   238   1      8.1600000000000019      71.400000000000006      59.159999999999997
   239   1      10.200000000000001      69.359999999999985      59.159999999999997
   240   1      10.200000000000001      71.400000000000006      57.120000000000005
   241   1      8.1600000000000019      69.359999999999985      61.200000000000003
   242   1      10.200000000000001      69.359999999999985      63.240000000000002
   243   1      10.200000000000001      71.400000000000006      61.200000000000003
   244   1      10.200000000000001      73.439999999999998      55.079999999999998
   245   1      8.1600000000000019      73.439999999999998      57.120000000000005
   246   1      10.200000000000001      73.439999999999998      59.159999999999997
   247   1      10.200000000000001      75.480000000000004      57.120000000000005
   248   1      14.280000000000001      30.600000000000001      57.120000000000005
   249   1                   12.24      34.679999999999993      55.079999999999998
   250   1      14.280000000000001      32.640000000000001      55.079999999999998
   251   1      14.280000000000001      34.679999999999993      53.040000000000006
   252   1                   12.24      32.640000000000001      57.120000000000005
   253   1                   12.24      34.679999999999993      59.159999999999997
   254   1      14.280000000000001      32.640000000000001      59.159999999999997
   255   1      14.280000000000001      34.679999999999993      57.120000000000005
   256   1      14.280000000000001      34.679999999999993      61.200000000000003
   257   1                   12.24      38.759999999999998      50.999999999999993
   258   1      14.280000000000001      36.719999999999999      50.999999999999993
   259   1      14.280000000000001      38.759999999999998      48.959999999999994
   260   1                   12.24      36.719999999999999      53.040000000000006
   261   1                   12.24      38.759999999999998      55.079999999999998
   262   1      14.280000000000001      36.719999999999999      55.079999999999998
   263   1      14.280000000000001      38.759999999999998      53.040000000000006
   264   1                   12.24      36.719999999999999      57.120000000000005
   265   1                   12.24      38.759999999999998      59.159999999999997
   266   1      14.280000000000001      36.719999999999999      59.159999999999997
   267   1      14.280000000000001      38.759999999999998      57.120000000000005
   268   1                   12.24      36.719999999999999      61.200000000000003
   269   1                   12.24      38.759999999999998      63.240000000000002
   270   1      14.280000000000001      36.719999999999999      63.240000000000002
   271   1      14.280000000000001      38.759999999999998      61.200000000000003
   272   1      14.280000000000001      38.759999999999998      65.280000000000001
   273   1                   12.24      42.840000000000003      46.920000000000002
   274   1      14.280000000000001      40.799999999999997      46.920000000000002
   275   1      14.280000000000001      42.840000000000003      44.880000000000003
   276   1                   12.24      40.799999999999997      48.959999999999994
   277   1                   12.24      42.840000000000003      50.999999999999993
   278   1      14.280000000000001      40.799999999999997      50.999999999999993
   279   1      14.280000000000001      42.840000000000003      48.959999999999994
   280   1                   12.24      40.799999999999997      53.040000000000006
   281   1                   12.24      42.840000000000003      55.079999999999998
   282   1      14.280000000000001      40.799999999999997      55.079999999999998
   283   1      14.280000000000001      42.840000000000003      53.040000000000006
   284   1                   12.24      40.799999999999997      57.120000000000005
   285   1                   12.24      42.840000000000003      59.159999999999997
   286   1      14.280000000000001      40.799999999999997      59.159999999999997
   287   1      14.280000000000001      42.840000000000003      57.120000000000005
   288   1                   12.24      40.799999999999997      61.200000000000003
   289   1                   12.24      42.840000000000003      63.240000000000002
   290   1      14.280000000000001      40.799999999999997      63.240000000000002
   291   1      14.280000000000001      42.840000000000003      61.200000000000003
   292   1                   12.24      40.799999999999997      65.280000000000001
   293   1                   12.24      42.840000000000003      67.319999999999993
   294   1      14.280000000000001      40.799999999999997      67.319999999999993
   295   1      14.280000000000001      42.840000000000003      65.280000000000001
   296   1      14.280000000000001      42.840000000000003      69.359999999999985
   297   1                   12.24      46.920000000000002      42.840000000000003
   298   1      14.280000000000001      44.880000000000003      42.840000000000003
   299   1      14.280000000000001      46.920000000000002      40.799999999999997
   300   1                   12.24      44.880000000000003      44.880000000000003
   301   1                   12.24      46.920000000000002      46.920000000000002
   302   1      14.280000000000001      44.880000000000003      46.920000000000002
   303   1      14.280000000000001      46.920000000000002      44.880000000000003
   304   1                   12.24      44.880000000000003      48.959999999999994
   305   1                   12.24      46.920000000000002      50.999999999999993
   306   1      14.280000000000001      44.880000000000003      50.999999999999993
   307   1      14.280000000000001      46.920000000000002      48.959999999999994
   308   1                   12.24      44.880000000000003      53.040000000000006
   309   1                   12.24      46.920000000000002      55.079999999999998
   310   1      14.280000000000001      44.880000000000003      55.079999999999998
   311   1      14.280000000000001      46.920000000000002      53.040000000000006
   312   1                   12.24      44.880000000000003      57.120000000000005
   313   1                   12.24      46.920000000000002      59.159999999999997
   314   1      14.280000000000001      44.880000000000003      59.159999999999997
   315   1      14.280000000000001      46.920000000000002      57.120000000000005
   316   1                   12.24      44.880000000000003      61.200000000000003
   317   1                   12.24      46.920000000000002      63.240000000000002
   318   1      14.280000000000001      44.880000000000003      63.240000000000002
   319   1      14.280000000000001      46.920000000000002      61.200000000000003
   320   1                   12.24      44.880000000000003      65.280000000000001
   321   1                   12.24      46.920000000000002      67.319999999999993
   322   1      14.280000000000001      44.880000000000003      67.319999999999993
   323   1      14.280000000000001      46.920000000000002      65.280000000000001
   324   1                   12.24      44.880000000000003      69.359999999999985
   325   1                   12.24      46.920000000000002      71.400000000000006
   326   1      14.280000000000001      44.880000000000003      71.400000000000006
   327   1      14.280000000000001      46.920000000000002      69.359999999999985
   328   1      14.280000000000001      46.920000000000002      73.439999999999998
   329   1                   12.24      50.999999999999993      38.759999999999998
   330   1      14.280000000000001      48.959999999999994      38.759999999999998
   331   1      14.280000000000001      50.999999999999993      36.719999999999999
   332   1                   12.24      48.959999999999994      40.799999999999997
   333   1                   12.24      50.999999999999993      42.840000000000003
   334   1      14.280000000000001      48.959999999999994      42.840000000000003
   335   1      14.280000000000001      50.999999999999993      40.799999999999997
   336   1                   12.24      48.959999999999994      44.880000000000003
   337   1                   12.24      50.999999999999993      46.920000000000002
   338   1      14.280000000000001      48.959999999999994      46.920000000000002
   339   1      14.280000000000001      50.999999999999993      44.880000000000003
   340   1                   12.24      48.959999999999994      48.959999999999994
   341   1                   12.24      50.999999999999993      50.999999999999993
   342   1      14.280000000000001      48.959999999999994      50.999999999999993
   343   1      14.280000000000001      50.999999999999993      48.959999999999994
   344   1                   12.24      48.959999999999994      53.040000000000006
   345   1                   12.24      50.999999999999993      55.079999999999998
   346   1      14.280000000000001      48.959999999999994      55.079999999999998
   347   1      14.280000000000001      50.999999999999993      53.040000000000006
   348   1                   12.24      48.959999999999994      57.120000000000005
   349   1                   12.24      50.999999999999993      59.159999999999997
   350   1      14.280000000000001      48.959999999999994      59.159999999999997
   351   1      14.280000000000001      50.999999999999993      57.120000000000005
   352   1                   12.24      48.959999999999994      61.200000000000003
   353   1                   12.24      50.999999999999993      63.240000000000002
   354   1      14.280000000000001      48.959999999999994      63.240000000000002
   355   1      14.280000000000001      50.999999999999993      61.200000000000003
   356   1                   12.24      48.959999999999994      65.280000000000001
   357   1                   12.24      50.999999999999993      67.319999999999993
   358   1      14.280000000000001      48.959999999999994      67.319999999999993