model_files/Pd/Pd_30000/Pd_311/data.Pd_311_fcc_30453 (written by ASE) 

30453 	 atoms 
1  atom types
0.0                      99  xlo xhi
0.0                      99  ylo yhi
0.0                      99  zlo zhi


Atoms 

     1   1      98.999999999999986                   46.68                  48.625
     2   1      98.999999999999986                  48.625                   46.68
     3   1      98.999999999999986                  48.625                   50.57
     4   1      98.999999999999986                   50.57                  48.625
     5   1      3.8899999999999944      35.009999999999998                  48.625
     6   1      3.8899999999999944      36.954999999999991                   46.68
     7   1      3.8899999999999944      38.899999999999991      44.734999999999992
     8   1      3.8899999999999944      36.954999999999991                   50.57
     9   1      3.8899999999999944      38.899999999999991                  48.625
    10   1      3.8899999999999944      38.899999999999991      52.514999999999993
    11   1      3.8899999999999944      40.844999999999999      42.789999999999992
    12   1      3.8899999999999944      42.789999999999992      40.844999999999999
    13   1      1.9449999999999932      42.789999999999992                   46.68
    14   1      3.8899999999999944      40.844999999999999                   46.68
    15   1      3.8899999999999944      42.789999999999992      44.734999999999992
    16   1      1.9449999999999932      40.844999999999999                  48.625
    17   1      1.9449999999999932      42.789999999999992                   50.57
    18   1      3.8899999999999944      40.844999999999999                   50.57
    19   1      3.8899999999999944      42.789999999999992                  48.625
    20   1      3.8899999999999944      40.844999999999999      54.460000000000001
    21   1      3.8899999999999944      42.789999999999992      52.514999999999993
    22   1      3.8899999999999944      42.789999999999992      56.405000000000001
    23   1      3.8899999999999944      44.734999999999992      38.899999999999991
    24   1      3.8899999999999944                   46.68      36.954999999999991
    25   1      1.9449999999999932                   46.68      42.789999999999992
    26   1      3.8899999999999944      44.734999999999992      42.789999999999992
    27   1      3.8899999999999944                   46.68      40.844999999999999
    28   1      1.9449999999999932      44.734999999999992      44.734999999999992
    29   1      1.9449999999999932                   46.68                   46.68
    30   1      3.8899999999999944      44.734999999999992                   46.68
    31   1      3.8899999999999944                   46.68      44.734999999999992
    32   1      1.9449999999999932      44.734999999999992                  48.625
    33   1      1.9449999999999932                   46.68                   50.57
    34   1      3.8899999999999944      44.734999999999992                   50.57
    35   1      3.8899999999999944                   46.68                  48.625
    36   1      1.9449999999999932      44.734999999999992      52.514999999999993
    37   1      1.9449999999999932                   46.68      54.460000000000001
    38   1      3.8899999999999944      44.734999999999992      54.460000000000001
    39   1      3.8899999999999944                   46.68      52.514999999999993
    40   1      3.8899999999999944      44.734999999999992      58.349999999999994
    41   1      3.8899999999999944                   46.68      56.405000000000001
    42   1      3.8899999999999944                   46.68      60.295000000000002
    43   1      3.8899999999999944                  48.625      35.009999999999998
    44   1      3.8899999999999944                  48.625      38.899999999999991
    45   1      3.8899999999999944                   50.57      36.954999999999991
    46   1      1.9449999999999932                  48.625      40.844999999999999
    47   1      1.9449999999999932                   50.57      42.789999999999992
    48   1      3.8899999999999944                  48.625      42.789999999999992
    49   1      3.8899999999999944                   50.57      40.844999999999999
    50   1      1.9449999999999932                  48.625      44.734999999999992
    51   1      1.9449999999999932                   50.57                   46.68
    52   1      3.8899999999999944                  48.625                   46.68
    53   1      3.8899999999999944                   50.57      44.734999999999992
    54   1      1.9449999999999932                  48.625                  48.625
    55   1      1.9449999999999932                   50.57                   50.57
    56   1      3.8899999999999944                  48.625                   50.57
    57   1      3.8899999999999944                   50.57                  48.625
    58   1      1.9449999999999932                  48.625      52.514999999999993
    59   1      1.9449999999999932                   50.57      54.460000000000001
    60   1      3.8899999999999944                  48.625      54.460000000000001
    61   1      3.8899999999999944                   50.57      52.514999999999993
    62   1      1.9449999999999932                  48.625      56.405000000000001
    63   1      3.8899999999999944                  48.625      58.349999999999994
    64   1      3.8899999999999944                   50.57      56.405000000000001
    65   1      3.8899999999999944                  48.625      62.240000000000002
    66   1      3.8899999999999944                   50.57      60.295000000000002
    67   1      3.8899999999999944      52.514999999999993      38.899999999999991
    68   1      3.8899999999999944      52.514999999999993      42.789999999999992
    69   1      3.8899999999999944      54.460000000000001      40.844999999999999
    70   1      1.9449999999999932      52.514999999999993      44.734999999999992
    71   1      1.9449999999999932      54.460000000000001                   46.68
    72   1      3.8899999999999944      52.514999999999993                   46.68
    73   1      3.8899999999999944      54.460000000000001      44.734999999999992
    74   1      1.9449999999999932      52.514999999999993                  48.625
    75   1      1.9449999999999932      54.460000000000001                   50.57
    76   1      3.8899999999999944      52.514999999999993                   50.57
    77   1      3.8899999999999944      54.460000000000001                  48.625
    78   1      1.9449999999999932      52.514999999999993      52.514999999999993
    79   1      3.8899999999999944      52.514999999999993      54.460000000000001
    80   1      3.8899999999999944      54.460000000000001      52.514999999999993
    81   1      3.8899999999999944      52.514999999999993      58.349999999999994
    82   1      3.8899999999999944      54.460000000000001      56.405000000000001
    83   1      3.8899999999999944      56.405000000000001      42.789999999999992
    84   1      3.8899999999999944      56.405000000000001                   46.68
    85   1      3.8899999999999944      58.349999999999994      44.734999999999992
    86   1      1.9449999999999932      56.405000000000001                  48.625
    87   1      3.8899999999999944      56.405000000000001                   50.57
    88   1      3.8899999999999944      58.349999999999994                  48.625
    89   1      3.8899999999999944      56.405000000000001      54.460000000000001
    90   1      3.8899999999999944      58.349999999999994      52.514999999999993
    91   1      3.8899999999999944      60.295000000000002                   46.68
    92   1      3.8899999999999944      60.295000000000002                   50.57
    93   1      3.8899999999999944      62.240000000000002                  48.625
    94   1      7.7799999999999949      23.339999999999993                  48.625
    95   1      7.7799999999999949      25.284999999999997                   46.68
    96   1      7.7799999999999949      27.229999999999993      44.734999999999992
    97   1      7.7799999999999949      25.284999999999997                   50.57
    98   1      7.7799999999999949      27.229999999999993                  48.625
    99   1      7.7799999999999949      27.229999999999993      52.514999999999993
   100   1      7.7799999999999949      29.174999999999997      42.789999999999992
   101   1      7.7799999999999949       31.11999999999999      40.844999999999999
   102   1      5.8349999999999946       31.11999999999999                   46.68
   103   1      7.7799999999999949      29.174999999999997                   46.68
   104   1      7.7799999999999949       31.11999999999999      44.734999999999992
   105   1      5.8349999999999946      29.174999999999997                  48.625
   106   1      5.8349999999999946       31.11999999999999                   50.57
   107   1      7.7799999999999949      29.174999999999997                   50.57
   108   1      7.7799999999999949       31.11999999999999                  48.625
   109   1      7.7799999999999949      29.174999999999997      54.460000000000001
   110   1      7.7799999999999949       31.11999999999999      52.514999999999993
   111   1      7.7799999999999949       31.11999999999999      56.405000000000001
   112   1      7.7799999999999949      33.064999999999998      38.899999999999991
   113   1      7.7799999999999949      35.009999999999998      36.954999999999991
   114   1      5.8349999999999946      35.009999999999998      42.789999999999992
   115   1      7.7799999999999949      33.064999999999998      42.789999999999992
   116   1      7.7799999999999949      35.009999999999998      40.844999999999999
   117   1      5.8349999999999946      33.064999999999998      44.734999999999992
   118   1      5.8349999999999946      35.009999999999998                   46.68
   119   1      7.7799999999999949      33.064999999999998                   46.68
   120   1      7.7799999999999949      35.009999999999998      44.734999999999992
   121   1      5.8349999999999946      33.064999999999998                  48.625
   122   1      5.8349999999999946      35.009999999999998                   50.57
   123   1      7.7799999999999949      33.064999999999998                   50.57
   124   1      7.7799999999999949      35.009999999999998                  48.625
   125   1      5.8349999999999946      33.064999999999998      52.514999999999993
   126   1      5.8349999999999946      35.009999999999998      54.460000000000001
   127   1      7.7799999999999949      33.064999999999998      54.460000000000001
   128   1      7.7799999999999949      35.009999999999998      52.514999999999993
   129   1      7.7799999999999949      33.064999999999998      58.349999999999994
   130   1      7.7799999999999949      35.009999999999998      56.405000000000001
   131   1      7.7799999999999949      35.009999999999998      60.295000000000002
   132   1      7.7799999999999949      36.954999999999991      35.009999999999998
   133   1      7.7799999999999949      38.899999999999991      33.064999999999998
   134   1      5.8349999999999946      38.899999999999991      38.899999999999991
   135   1      7.7799999999999949      36.954999999999991      38.899999999999991
   136   1      7.7799999999999949      38.899999999999991      36.954999999999991
   137   1      5.8349999999999946      36.954999999999991      40.844999999999999
   138   1      5.8349999999999946      38.899999999999991      42.789999999999992
   139   1      7.7799999999999949      36.954999999999991      42.789999999999992
   140   1      7.7799999999999949      38.899999999999991      40.844999999999999
   141   1      5.8349999999999946      36.954999999999991      44.734999999999992
   142   1      5.8349999999999946      38.899999999999991                   46.68
   143   1      7.7799999999999949      36.954999999999991                   46.68
   144   1      7.7799999999999949      38.899999999999991      44.734999999999992
   145   1      5.8349999999999946      36.954999999999991                  48.625
   146   1      5.8349999999999946      38.899999999999991                   50.57
   147   1      7.7799999999999949      36.954999999999991                   50.57
   148   1      7.7799999999999949      38.899999999999991                  48.625
   149   1      5.8349999999999946      36.954999999999991      52.514999999999993
   150   1      5.8349999999999946      38.899999999999991      54.460000000000001
   151   1      7.7799999999999949      36.954999999999991      54.460000000000001
   152   1      7.7799999999999949      38.899999999999991      52.514999999999993
   153   1      5.8349999999999946      36.954999999999991      56.405000000000001
   154   1      5.8349999999999946      38.899999999999991      58.349999999999994
   155   1      7.7799999999999949      36.954999999999991      58.349999999999994
   156   1      7.7799999999999949      38.899999999999991      56.405000000000001
   157   1      7.7799999999999949      36.954999999999991      62.240000000000002
   158   1      7.7799999999999949      38.899999999999991      60.295000000000002
   159   1      7.7799999999999949      38.899999999999991      64.185000000000002
   160   1      7.7799999999999949      40.844999999999999       31.11999999999999
   161   1      7.7799999999999949      42.789999999999992      29.174999999999997
   162   1      5.8349999999999946      42.789999999999992      35.009999999999998
   163   1      7.7799999999999949      40.844999999999999      35.009999999999998
   164   1      7.7799999999999949      42.789999999999992      33.064999999999998
   165   1      5.8349999999999946      40.844999999999999      36.954999999999991
   166   1      5.8349999999999946      42.789999999999992      38.899999999999991
   167   1      7.7799999999999949      40.844999999999999      38.899999999999991
   168   1      7.7799999999999949      42.789999999999992      36.954999999999991
   169   1      5.8349999999999946      40.844999999999999      40.844999999999999
   170   1      5.8349999999999946      42.789999999999992      42.789999999999992
   171   1      7.7799999999999949      40.844999999999999      42.789999999999992
   172   1      7.7799999999999949      42.789999999999992      40.844999999999999
   173   1      5.8349999999999946      40.844999999999999      44.734999999999992
   174   1      5.8349999999999946      42.789999999999992                   46.68
   175   1      7.7799999999999949      40.844999999999999                   46.68
   176   1      7.7799999999999949      42.789999999999992      44.734999999999992
   177   1      5.8349999999999946      40.844999999999999                  48.625
   178   1      5.8349999999999946      42.789999999999992                   50.57
   179   1      7.7799999999999949      40.844999999999999                   50.57
   180   1      7.7799999999999949      42.789999999999992                  48.625
   181   1      5.8349999999999946      40.844999999999999      52.514999999999993
   182   1      5.8349999999999946      42.789999999999992      54.460000000000001
   183   1      7.7799999999999949      40.844999999999999      54.460000000000001
   184   1      7.7799999999999949      42.789999999999992      52.514999999999993
   185   1      5.8349999999999946      40.844999999999999      56.405000000000001
   186   1      5.8349999999999946      42.789999999999992      58.349999999999994
   187   1      7.7799999999999949      40.844999999999999      58.349999999999994
   188   1      7.7799999999999949      42.789999999999992      56.405000000000001
   189   1      5.8349999999999946      40.844999999999999      60.295000000000002
   190   1      5.8349999999999946      42.789999999999992      62.240000000000002
   191   1      7.7799999999999949      40.844999999999999      62.240000000000002
   192   1      7.7799999999999949      42.789999999999992      60.295000000000002
   193   1      7.7799999999999949      40.844999999999999      66.129999999999995
   194   1      7.7799999999999949      42.789999999999992      64.185000000000002
   195   1      7.7799999999999949      42.789999999999992      68.075000000000003
   196   1      7.7799999999999949      44.734999999999992      27.229999999999993
   197   1      7.7799999999999949                   46.68      25.284999999999997
   198   1      5.8349999999999946                   46.68       31.11999999999999
   199   1      7.7799999999999949      44.734999999999992       31.11999999999999
   200   1      7.7799999999999949                   46.68      29.174999999999997
   201   1      5.8349999999999946      44.734999999999992      33.064999999999998
   202   1      5.8349999999999946                   46.68      35.009999999999998
   203   1      7.7799999999999949      44.734999999999992      35.009999999999998
   204   1      7.7799999999999949                   46.68      33.064999999999998
   205   1      5.8349999999999946      44.734999999999992      36.954999999999991
   206   1      5.8349999999999946                   46.68      38.899999999999991
   207   1      7.7799999999999949      44.734999999999992      38.899999999999991
   208   1      7.7799999999999949                   46.68      36.954999999999991
   209   1      5.8349999999999946      44.734999999999992      40.844999999999999
   210   1      5.8349999999999946                   46.68      42.789999999999992
   211   1      7.7799999999999949      44.734999999999992      42.789999999999992
   212   1      7.7799999999999949                   46.68      40.844999999999999
   213   1      5.8349999999999946      44.734999999999992      44.734999999999992
   214   1      5.8349999999999946                   46.68                   46.68
   215   1      7.7799999999999949      44.734999999999992                   46.68
   216   1      7.7799999999999949                   46.68      44.734999999999992
   217   1      5.8349999999999946      44.734999999999992                  48.625
   218   1      5.8349999999999946                   46.68                   50.57
   219   1      7.7799999999999949      44.734999999999992                   50.57
   220   1      7.7799999999999949                   46.68                  48.625
   221   1      5.8349999999999946      44.734999999999992      52.514999999999993
   222   1      5.8349999999999946                   46.68      54.460000000000001
   223   1      7.7799999999999949      44.734999999999992      54.460000000000001
   224   1      7.7799999999999949                   46.68      52.514999999999993
   225   1      5.8349999999999946      44.734999999999992      56.405000000000001
   226   1      5.8349999999999946                   46.68      58.349999999999994
   227   1      7.7799999999999949      44.734999999999992      58.349999999999994
   228   1      7.7799999999999949                   46.68      56.405000000000001
   229   1      5.8349999999999946      44.734999999999992      60.295000000000002
   230   1      5.8349999999999946                   46.68      62.240000000000002
   231   1      7.7799999999999949      44.734999999999992      62.240000000000002
   232   1      7.7799999999999949                   46.68      60.295000000000002
   233   1      5.8349999999999946      44.734999999999992      64.185000000000002
   234   1      5.8349999999999946                   46.68      66.129999999999995
   235   1      7.7799999999999949      44.734999999999992      66.129999999999995
   236   1      7.7799999999999949                   46.68      64.185000000000002
   237   1      7.7799999999999949      44.734999999999992      70.019999999999996
   238   1      7.7799999999999949                   46.68      68.075000000000003
   239   1      7.7799999999999949                   46.68      71.964999999999989
   240   1      7.7799999999999949                  48.625      23.339999999999993
   241   1      7.7799999999999949                  48.625      27.229999999999993
   242   1      7.7799999999999949                   50.57      25.284999999999997
   243   1      5.8349999999999946                  48.625      29.174999999999997
   244   1      5.8349999999999946                   50.57       31.11999999999999
   245   1      7.7799999999999949                  48.625       31.11999999999999
   246   1      7.7799999999999949                   50.57      29.174999999999997
   247   1      5.8349999999999946                  48.625      33.064999999999998
   248   1      5.8349999999999946                   50.57      35.009999999999998
   249   1      7.7799999999999949                  48.625      35.009999999999998
   250   1      7.7799999999999949                   50.57      33.064999999999998
   251   1      5.8349999999999946                  48.625      36.954999999999991
   252   1      5.8349999999999946                   50.57      38.899999999999991
   253   1      7.7799999999999949                  48.625      38.899999999999991
   254   1      7.7799999999999949                   50.57      36.954999999999991
   255   1      5.8349999999999946                  48.625      40.844999999999999
   256   1      5.8349999999999946                   50.57      42.789999999999992
   257   1      7.7799999999999949                  48.625      42.789999999999992
   258   1      7.7799999999999949                   50.57      40.844999999999999
   259   1      5.8349999999999946                  48.625      44.734999999999992
   260   1      5.8349999999999946                   50.57                   46.68
   261   1      7.7799999999999949                  48.625                   46.68
   262   1      7.7799999999999949                   50.57      44.734999999999992
   263   1      5.8349999999999946                  48.625                  48.625
   264   1      5.8349999999999946                   50.57                   50.57
   265   1      7.7799999999999949                  48.625                   50.57
   266   1      7.7799999999999949                   50.57                  48.625
   267   1      5.8349999999999946                  48.625      52.514999999999993
   268   1      5.8349999999999946                   50.57      54.460000000000001
   269   1      7.7799999999999949                  48.625      54.460000000000001
   270   1      7.7799999999999949                   50.57      52.514999999999993
   271   1      5.8349999999999946                  48.625      56.405000000000001
   272   1      5.8349999999999946                   50.57      58.349999999999994
   273   1      7.7799999999999949                  48.625      58.349999999999994
   274   1      7.7799999999999949                   50.57      56.405000000000001
   275   1      5.8349999999999946                  48.625      60.295000000000002
   276   1      5.8349999999999946                   50.57      62.240000000000002
   277   1      7.7799999999999949                  48.625      62.240000000000002
   278   1      7.7799999999999949                   50.57      60.295000000000002
   279   1      5.8349999999999946                  48.625      64.185000000000002
   280   1      5.8349999999999946                   50.57      66.129999999999995
   281   1      7.7799999999999949                  48.625      66.129999999999995
   282   1      7.7799999999999949                   50.57      64.185000000000002
   283   1      5.8349999999999946                  48.625      68.075000000000003
   284   1      7.7799999999999949                  48.625      70.019999999999996
   285   1      7.7799999999999949                   50.57      68.075000000000003
   286   1      7.7799999999999949                  48.625      73.909999999999982
   287   1      7.7799999999999949                   50.57      71.964999999999989
   288   1      7.7799999999999949      52.514999999999993      27.229999999999993
   289   1      7.7799999999999949      52.514999999999993       31.11999999999999
   290   1      7.7799999999999949      54.460000000000001      29.174999999999997
   291   1      5.8349999999999946      52.514999999999993      33.064999999999998
   292   1      5.8349999999999946      54.460000000000001      35.009999999999998
   293   1      7.7799999999999949      52.514999999999993      35.009999999999998
   294   1      7.7799999999999949      54.460000000000001      33.064999999999998
   295   1      5.8349999999999946      52.514999999999993      36.954999999999991
   296   1      5.8349999999999946      54.460000000000001      38.899999999999991
   297   1      7.7799999999999949      52.514999999999993      38.899999999999991
   298   1      7.7799999999999949      54.460000000000001      36.954999999999991
   299   1      5.8349999999999946      52.514999999999993      40.844999999999999
   300   1      5.8349999999999946      54.460000000000001      42.789999999999992
   301   1      7.7799999999999949      52.514999999999993      42.789999999999992
   302   1      7.7799999999999949      54.460000000000001      40.844999999999999
   303   1      5.8349999999999946      52.514999999999993      44.734999999999992
   304   1      5.8349999999999946      54.460000000000001                   46.68
   305   1      7.7799999999999949      52.514999999999993                   46.68
   306   1      7.7799999999999949      54.460000000000001      44.734999999999992
   307   1      5.8349999999999946      52.514999999999993                  48.625
   308   1      5.8349999999999946      54.460000000000001                   50.57
   309   1      7.7799999999999949      52.514999999999993                   50.57
   310   1      7.7799999999999949      54.460000000000001                  48.625
   311   1      5.8349999999999946      52.514999999999993      52.514999999999993
   312   1      5.8349999999999946      54.460000000000001      54.460000000000001
   313   1      7.7799999999999949      52.514999999999993      54.460000000000001
   314   1      7.7799999999999949      54.460000000000001      52.514999999999993
   315   1      5.8349999999999946      52.514999999999993      56.405000000000001
   316   1      5.8349999999999946      54.460000000000001      58.349999999999994
   317   1      7.7799999999999949      52.514999999999993      58.349999999999994
   318   1      7.7799999999999949      54.460000000000001      56.405000000000001
   319   1      5.8349999999999946      52.514999999999993      60.295000000000002
   320   1      5.8349999999999946      54.460000000000001      62.240000000000002
   321   1      7.7799999999999949      52.514999999999993      62.240000000000002
   322   1      7.7799999999999949      54.460000000000001      60.295000000000002
   323   1      5.8349999999999946      52.514999999999993      64.185000000000002
   324   1      7.7799999999999949      52.514999999999993      66.129999999999995
   325   1      7.7799999999999949      54.460000000000001      64.185000000000002
   326   1      7.7799999999999949      52.514999999999993      70.019999999999996
   327   1      7.7799999999999949      54.460000000000001      68.075000000000003
   328   1      7.7799999999999949      56.405000000000001       31.11999999999999
   329   1      7.7799999999999949      56.405000000000001      35.009999999999998
   330   1      7.7799999999999949      58.349999999999994      33.064999999999998
   331   1      5.8349999999999946      56.405000000000001      36.954999999999991
   332   1      5.8349999999999946      58.349999999999994      38.899999999999991
   333   1      7.7799999999999949      56.405000000000001      38.899999999999991
   334   1      7.7799999999999949      58.349999999999994      36.954999999999991
   335   1      5.8349999999999946      56.405000000000001      40.844999999999999
   336   1      5.8349999999999946      58.349999999999994      42.789999999999992
   337   1      7.7799999999999949      56.405000000000001      42.789999999999992
   338   1      7.7799999999999949      58.349999999999994      40.844999999999999
   339   1      5.8349999999999946      56.405000000000001      44.734999999999992
   340   1      5.8349999999999946      58.349999999999994                   46.68
   341   1      7.7799999999999949      56.405000000000001                   46.68
   342   1      7.7799999999999949      58.349999999999994      44.734999999999992
   343   1      5.8349999999999946      56.405000000000001                  48.625
   344   1      5.8349999999999946      58.349999999999994                   50.57
   345   1      7.7799999999999949      56.405000000000001                   50.57
   346   1      7.7799999999999949      58.349999999999994                  48.625
   347   1      5.8349999999999946      56.405000000000001      52.514999999999993
   348   1      5.8349999999999946      58.349999999999994      54.460000000000001
   349   1      7.7799999999999949      56.405000000000001      54.460000000000001
   350   1      7.7799999999999949      58.349999999999994      52.514999999999993
   351   1      5.8349999999999946      56.405000000000001      56.405000000000001
   352   1      5.8349999999999946      58.349999999999994      58.349999999999994
   353   1      7.7799999999999949      56.405000000000001      58.349999999999994
   354   1      7.7799999999999949      58.349999999999994      56.405000000000001
   355   1      5.8349999999999946      56.405000000000001      60.295000000000002
   356   1      7.7799999999999949      56.405000000000001      62.240000000000002
   357   1      7.7799999999999949      58.349999999999994      60.295000000000002
   358   1      7.7799999999999949      56.405000000000001      66.129999999999995