model_files/Fe/Fe_30000/Fe_432/data.Fe_432_fcc_29855 (written by ASE) 

29855 	 atoms 
1  atom types
0.0                     111  xlo xhi
0.0                     111  ylo yhi
0.0                     111  zlo zhi


Atoms 

     1   1      1.4350000000000094      53.095000000000006      53.095000000000006
     2   1      1.4350000000000094      53.095000000000006      55.965000000000003
     3   1      1.4350000000000094      55.965000000000003      53.095000000000006
     4   1  7.1054273576010019e-15      54.530000000000001      54.530000000000001
     5   1      1.4350000000000094      55.965000000000003      55.965000000000003
     6   1      4.3050000000000068      50.225000000000009      50.225000000000009
     7   1      4.3050000000000068      50.225000000000009      53.095000000000006
     8   1      4.3050000000000068      50.225000000000009      55.965000000000003
     9   1      4.3050000000000068      50.225000000000009      58.835000000000008
    10   1      4.3050000000000068      53.095000000000006      50.225000000000009
    11   1      2.8700000000000117      51.660000000000004      51.660000000000004
    12   1      4.3050000000000068      53.095000000000006      53.095000000000006
    13   1      2.8700000000000117      51.660000000000004      54.530000000000001
    14   1      4.3050000000000068      53.095000000000006      55.965000000000003
    15   1      2.8700000000000117      51.660000000000004      57.400000000000006
    16   1      4.3050000000000068      53.095000000000006      58.835000000000008
    17   1      4.3050000000000068      55.965000000000003      50.225000000000009
    18   1      2.8700000000000117      54.530000000000001      51.660000000000004
    19   1      4.3050000000000068      55.965000000000003      53.095000000000006
    20   1      2.8700000000000117      54.530000000000001      54.530000000000001
    21   1      4.3050000000000068      55.965000000000003      55.965000000000003
    22   1      2.8700000000000117      54.530000000000001      57.400000000000006
    23   1      4.3050000000000068      55.965000000000003      58.835000000000008
    24   1      4.3050000000000068      58.835000000000008      50.225000000000009
    25   1      2.8700000000000117      57.400000000000006      51.660000000000004
    26   1      4.3050000000000068      58.835000000000008      53.095000000000006
    27   1      2.8700000000000117      57.400000000000006      54.530000000000001
    28   1      4.3050000000000068      58.835000000000008      55.965000000000003
    29   1      2.8700000000000117      57.400000000000006      57.400000000000006
    30   1      4.3050000000000068      58.835000000000008      58.835000000000008
    31   1      7.1750000000000114      44.485000000000007      53.095000000000006
    32   1      7.1750000000000114      44.485000000000007      55.965000000000003
    33   1      7.1750000000000114      47.355000000000004      50.225000000000009
    34   1      7.1750000000000114      47.355000000000004      53.095000000000006
    35   1      5.7400000000000091      45.920000000000002      54.530000000000001
    36   1      7.1750000000000114      47.355000000000004      55.965000000000003
    37   1      7.1750000000000114      47.355000000000004      58.835000000000008
    38   1      7.1750000000000114      50.225000000000009      47.355000000000004
    39   1      7.1750000000000114      50.225000000000009      50.225000000000009
    40   1      5.7400000000000091      48.790000000000006      51.660000000000004
    41   1      7.1750000000000114      50.225000000000009      53.095000000000006
    42   1      5.7400000000000091      48.790000000000006      54.530000000000001
    43   1      7.1750000000000114      50.225000000000009      55.965000000000003
    44   1      5.7400000000000091      48.790000000000006      57.400000000000006
    45   1      7.1750000000000114      50.225000000000009      58.835000000000008
    46   1      7.1750000000000114      50.225000000000009      61.704999999999991
    47   1      7.1750000000000114      53.095000000000006      44.485000000000007
    48   1      7.1750000000000114      53.095000000000006      47.355000000000004
    49   1      5.7400000000000091      51.660000000000004      48.790000000000006
    50   1      7.1750000000000114      53.095000000000006      50.225000000000009
    51   1      5.7400000000000091      51.660000000000004      51.660000000000004
    52   1      7.1750000000000114      53.095000000000006      53.095000000000006
    53   1      5.7400000000000091      51.660000000000004      54.530000000000001
    54   1      7.1750000000000114      53.095000000000006      55.965000000000003
    55   1      5.7400000000000091      51.660000000000004      57.400000000000006
    56   1      7.1750000000000114      53.095000000000006      58.835000000000008
    57   1      5.7400000000000091      51.660000000000004      60.270000000000003
    58   1      7.1750000000000114      53.095000000000006      61.704999999999991
    59   1      7.1750000000000114      53.095000000000006      64.575000000000003
    60   1      7.1750000000000114      55.965000000000003      44.485000000000007
    61   1      5.7400000000000091      54.530000000000001      45.920000000000002
    62   1      7.1750000000000114      55.965000000000003      47.355000000000004
    63   1      5.7400000000000091      54.530000000000001      48.790000000000006
    64   1      7.1750000000000114      55.965000000000003      50.225000000000009
    65   1      5.7400000000000091      54.530000000000001      51.660000000000004
    66   1      7.1750000000000114      55.965000000000003      53.095000000000006
    67   1      5.7400000000000091      54.530000000000001      54.530000000000001
    68   1      7.1750000000000114      55.965000000000003      55.965000000000003
    69   1      5.7400000000000091      54.530000000000001      57.400000000000006
    70   1      7.1750000000000114      55.965000000000003      58.835000000000008
    71   1      5.7400000000000091      54.530000000000001      60.270000000000003
    72   1      7.1750000000000114      55.965000000000003      61.704999999999991
    73   1      5.7400000000000091      54.530000000000001      63.139999999999993
    74   1      7.1750000000000114      55.965000000000003      64.575000000000003
    75   1      7.1750000000000114      58.835000000000008      47.355000000000004
    76   1      5.7400000000000091      57.400000000000006      48.790000000000006
    77   1      7.1750000000000114      58.835000000000008      50.225000000000009
    78   1      5.7400000000000091      57.400000000000006      51.660000000000004
    79   1      7.1750000000000114      58.835000000000008      53.095000000000006
    80   1      5.7400000000000091      57.400000000000006      54.530000000000001
    81   1      7.1750000000000114      58.835000000000008      55.965000000000003
    82   1      5.7400000000000091      57.400000000000006      57.400000000000006
    83   1      7.1750000000000114      58.835000000000008      58.835000000000008
    84   1      5.7400000000000091      57.400000000000006      60.270000000000003
    85   1      7.1750000000000114      58.835000000000008      61.704999999999991
    86   1      7.1750000000000114      61.704999999999991      50.225000000000009
    87   1      5.7400000000000091      60.270000000000003      51.660000000000004
    88   1      7.1750000000000114      61.704999999999991      53.095000000000006
    89   1      5.7400000000000091      60.270000000000003      54.530000000000001
    90   1      7.1750000000000114      61.704999999999991      55.965000000000003
    91   1      5.7400000000000091      60.270000000000003      57.400000000000006
    92   1      7.1750000000000114      61.704999999999991      58.835000000000008
    93   1      7.1750000000000114      64.575000000000003      53.095000000000006
    94   1      5.7400000000000091      63.139999999999993      54.530000000000001
    95   1      7.1750000000000114      64.575000000000003      55.965000000000003
    96   1      10.045000000000009      41.615000000000009      53.095000000000006
    97   1      10.045000000000009      41.615000000000009      55.965000000000003
    98   1      10.045000000000009      44.485000000000007      47.355000000000004
    99   1      10.045000000000009      44.485000000000007      50.225000000000009
   100   1      10.045000000000009      44.485000000000007      53.095000000000006
   101   1      8.6100000000000065      43.050000000000004      54.530000000000001
   102   1      10.045000000000009      44.485000000000007      55.965000000000003
   103   1      10.045000000000009      44.485000000000007      58.835000000000008
   104   1      10.045000000000009      44.485000000000007      61.704999999999991
   105   1      10.045000000000009      47.355000000000004      44.485000000000007
   106   1      10.045000000000009      47.355000000000004      47.355000000000004
   107   1      8.6100000000000065      45.920000000000002      48.790000000000006
   108   1      10.045000000000009      47.355000000000004      50.225000000000009
   109   1      8.6100000000000065      45.920000000000002      51.660000000000004
   110   1      10.045000000000009      47.355000000000004      53.095000000000006
   111   1      8.6100000000000065      45.920000000000002      54.530000000000001
   112   1      10.045000000000009      47.355000000000004      55.965000000000003
   113   1      8.6100000000000065      45.920000000000002      57.400000000000006
   114   1      10.045000000000009      47.355000000000004      58.835000000000008
   115   1      8.6100000000000065      45.920000000000002      60.270000000000003
   116   1      10.045000000000009      47.355000000000004      61.704999999999991
   117   1      10.045000000000009      47.355000000000004      64.575000000000003
   118   1      10.045000000000009      50.225000000000009      44.485000000000007
   119   1      8.6100000000000065      48.790000000000006      45.920000000000002
   120   1      10.045000000000009      50.225000000000009      47.355000000000004
   121   1      8.6100000000000065      48.790000000000006      48.790000000000006
   122   1      10.045000000000009      50.225000000000009      50.225000000000009
   123   1      8.6100000000000065      48.790000000000006      51.660000000000004
   124   1      10.045000000000009      50.225000000000009      53.095000000000006
   125   1      8.6100000000000065      48.790000000000006      54.530000000000001
   126   1      10.045000000000009      50.225000000000009      55.965000000000003
   127   1      8.6100000000000065      48.790000000000006      57.400000000000006
   128   1      10.045000000000009      50.225000000000009      58.835000000000008
   129   1      8.6100000000000065      48.790000000000006      60.270000000000003
   130   1      10.045000000000009      50.225000000000009      61.704999999999991
   131   1      8.6100000000000065      48.790000000000006      63.139999999999993
   132   1      10.045000000000009      50.225000000000009      64.575000000000003
   133   1      10.045000000000009      53.095000000000006      41.615000000000009
   134   1      10.045000000000009      53.095000000000006      44.485000000000007
   135   1      8.6100000000000065      51.660000000000004      45.920000000000002
   136   1      10.045000000000009      53.095000000000006      47.355000000000004
   137   1      8.6100000000000065      51.660000000000004      48.790000000000006
   138   1      10.045000000000009      53.095000000000006      50.225000000000009
   139   1      8.6100000000000065      51.660000000000004      51.660000000000004
   140   1      10.045000000000009      53.095000000000006      53.095000000000006
   141   1      8.6100000000000065      51.660000000000004      54.530000000000001
   142   1      10.045000000000009      53.095000000000006      55.965000000000003
   143   1      8.6100000000000065      51.660000000000004      57.400000000000006
   144   1      10.045000000000009      53.095000000000006      58.835000000000008
   145   1      8.6100000000000065      51.660000000000004      60.270000000000003
   146   1      10.045000000000009      53.095000000000006      61.704999999999991
   147   1      8.6100000000000065      51.660000000000004      63.139999999999993
   148   1      10.045000000000009      53.095000000000006      64.575000000000003
   149   1      10.045000000000009      53.095000000000006      67.445000000000007
   150   1      10.045000000000009      55.965000000000003      41.615000000000009
   151   1      8.6100000000000065      54.530000000000001      43.050000000000004
   152   1      10.045000000000009      55.965000000000003      44.485000000000007
   153   1      8.6100000000000065      54.530000000000001      45.920000000000002
   154   1      10.045000000000009      55.965000000000003      47.355000000000004
   155   1      8.6100000000000065      54.530000000000001      48.790000000000006
   156   1      10.045000000000009      55.965000000000003      50.225000000000009
   157   1      8.6100000000000065      54.530000000000001      51.660000000000004
   158   1      10.045000000000009      55.965000000000003      53.095000000000006
   159   1      8.6100000000000065      54.530000000000001      54.530000000000001
   160   1      10.045000000000009      55.965000000000003      55.965000000000003
   161   1      8.6100000000000065      54.530000000000001      57.400000000000006
   162   1      10.045000000000009      55.965000000000003      58.835000000000008
   163   1      8.6100000000000065      54.530000000000001      60.270000000000003
   164   1      10.045000000000009      55.965000000000003      61.704999999999991
   165   1      8.6100000000000065      54.530000000000001      63.139999999999993
   166   1      10.045000000000009      55.965000000000003      64.575000000000003
   167   1      8.6100000000000065      54.530000000000001      66.010000000000005
   168   1      10.045000000000009      55.965000000000003      67.445000000000007
   169   1      10.045000000000009      58.835000000000008      44.485000000000007
   170   1      8.6100000000000065      57.400000000000006      45.920000000000002
   171   1      10.045000000000009      58.835000000000008      47.355000000000004
   172   1      8.6100000000000065      57.400000000000006      48.790000000000006
   173   1      10.045000000000009      58.835000000000008      50.225000000000009
   174   1      8.6100000000000065      57.400000000000006      51.660000000000004
   175   1      10.045000000000009      58.835000000000008      53.095000000000006
   176   1      8.6100000000000065      57.400000000000006      54.530000000000001
   177   1      10.045000000000009      58.835000000000008      55.965000000000003
   178   1      8.6100000000000065      57.400000000000006      57.400000000000006
   179   1      10.045000000000009      58.835000000000008      58.835000000000008
   180   1      8.6100000000000065      57.400000000000006      60.270000000000003
   181   1      10.045000000000009      58.835000000000008      61.704999999999991
   182   1      8.6100000000000065      57.400000000000006      63.139999999999993
   183   1      10.045000000000009      58.835000000000008      64.575000000000003
   184   1      10.045000000000009      61.704999999999991      44.485000000000007
   185   1      8.6100000000000065      60.270000000000003      45.920000000000002
   186   1      10.045000000000009      61.704999999999991      47.355000000000004
   187   1      8.6100000000000065      60.270000000000003      48.790000000000006
   188   1      10.045000000000009      61.704999999999991      50.225000000000009
   189   1      8.6100000000000065      60.270000000000003      51.660000000000004
   190   1      10.045000000000009      61.704999999999991      53.095000000000006
   191   1      8.6100000000000065      60.270000000000003      54.530000000000001
   192   1      10.045000000000009      61.704999999999991      55.965000000000003
   193   1      8.6100000000000065      60.270000000000003      57.400000000000006
   194   1      10.045000000000009      61.704999999999991      58.835000000000008
   195   1      8.6100000000000065      60.270000000000003      60.270000000000003
   196   1      10.045000000000009      61.704999999999991      61.704999999999991
   197   1      8.6100000000000065      60.270000000000003      63.139999999999993
   198   1      10.045000000000009      61.704999999999991      64.575000000000003
   199   1      10.045000000000009      64.575000000000003      47.355000000000004
   200   1      8.6100000000000065      63.139999999999993      48.790000000000006
   201   1      10.045000000000009      64.575000000000003      50.225000000000009
   202   1      8.6100000000000065      63.139999999999993      51.660000000000004
   203   1      10.045000000000009      64.575000000000003      53.095000000000006
   204   1      8.6100000000000065      63.139999999999993      54.530000000000001
   205   1      10.045000000000009      64.575000000000003      55.965000000000003
   206   1      8.6100000000000065      63.139999999999993      57.400000000000006
   207   1      10.045000000000009      64.575000000000003      58.835000000000008
   208   1      8.6100000000000065      63.139999999999993      60.270000000000003
   209   1      10.045000000000009      64.575000000000003      61.704999999999991
   210   1      10.045000000000009      67.445000000000007      53.095000000000006
   211   1      8.6100000000000065      66.010000000000005      54.530000000000001
   212   1      10.045000000000009      67.445000000000007      55.965000000000003
   213   1      12.915000000000006      38.745000000000005      50.225000000000009
   214   1      12.915000000000006      38.745000000000005      53.095000000000006
   215   1      12.915000000000006      38.745000000000005      55.965000000000003
   216   1      12.915000000000006      38.745000000000005      58.835000000000008
   217   1      12.915000000000006      41.615000000000009      47.355000000000004
   218   1      12.915000000000006      41.615000000000009      50.225000000000009
   219   1      11.480000000000004      40.180000000000007      51.660000000000004
   220   1      12.915000000000006      41.615000000000009      53.095000000000006
   221   1      11.480000000000004      40.180000000000007      54.530000000000001
   222   1      12.915000000000006      41.615000000000009      55.965000000000003
   223   1      11.480000000000004      40.180000000000007      57.400000000000006
   224   1      12.915000000000006      41.615000000000009      58.835000000000008
   225   1      12.915000000000006      41.615000000000009      61.704999999999991
   226   1      12.915000000000006      44.485000000000007      44.485000000000007
   227   1      12.915000000000006      44.485000000000007      47.355000000000004
   228   1      11.480000000000004      43.050000000000004      48.790000000000006
   229   1      12.915000000000006      44.485000000000007      50.225000000000009
   230   1      11.480000000000004      43.050000000000004      51.660000000000004
   231   1      12.915000000000006      44.485000000000007      53.095000000000006
   232   1      11.480000000000004      43.050000000000004      54.530000000000001
   233   1      12.915000000000006      44.485000000000007      55.965000000000003
   234   1      11.480000000000004      43.050000000000004      57.400000000000006
   235   1      12.915000000000006      44.485000000000007      58.835000000000008
   236   1      11.480000000000004      43.050000000000004      60.270000000000003
   237   1      12.915000000000006      44.485000000000007      61.704999999999991
   238   1      12.915000000000006      44.485000000000007      64.575000000000003
   239   1      12.915000000000006      47.355000000000004      41.615000000000009
   240   1      12.915000000000006      47.355000000000004      44.485000000000007
   241   1      11.480000000000004      45.920000000000002      45.920000000000002
   242   1      12.915000000000006      47.355000000000004      47.355000000000004
   243   1      11.480000000000004      45.920000000000002      48.790000000000006
   244   1      12.915000000000006      47.355000000000004      50.225000000000009
   245   1      11.480000000000004      45.920000000000002      51.660000000000004
   246   1      12.915000000000006      47.355000000000004      53.095000000000006
   247   1      11.480000000000004      45.920000000000002      54.530000000000001
   248   1      12.915000000000006      47.355000000000004      55.965000000000003
   249   1      11.480000000000004      45.920000000000002      57.400000000000006
   250   1      12.915000000000006      47.355000000000004      58.835000000000008
   251   1      11.480000000000004      45.920000000000002      60.270000000000003
   252   1      12.915000000000006      47.355000000000004      61.704999999999991
   253   1      11.480000000000004      45.920000000000002      63.139999999999993
   254   1      12.915000000000006      47.355000000000004      64.575000000000003
   255   1      12.915000000000006      47.355000000000004      67.445000000000007
   256   1      12.915000000000006      50.225000000000009      38.745000000000005
   257   1      12.915000000000006      50.225000000000009      41.615000000000009
   258   1      11.480000000000004      48.790000000000006      43.050000000000004
   259   1      12.915000000000006      50.225000000000009      44.485000000000007
   260   1      11.480000000000004      48.790000000000006      45.920000000000002
   261   1      12.915000000000006      50.225000000000009      47.355000000000004
   262   1      11.480000000000004      48.790000000000006      48.790000000000006
   263   1      12.915000000000006      50.225000000000009      50.225000000000009
   264   1      11.480000000000004      48.790000000000006      51.660000000000004
   265   1      12.915000000000006      50.225000000000009      53.095000000000006
   266   1      11.480000000000004      48.790000000000006      54.530000000000001
   267   1      12.915000000000006      50.225000000000009      55.965000000000003
   268   1      11.480000000000004      48.790000000000006      57.400000000000006
   269   1      12.915000000000006      50.225000000000009      58.835000000000008
   270   1      11.480000000000004      48.790000000000006      60.270000000000003
   271   1      12.915000000000006      50.225000000000009      61.704999999999991
   272   1      11.480000000000004      48.790000000000006      63.139999999999993
   273   1      12.915000000000006      50.225000000000009      64.575000000000003
   274   1      11.480000000000004      48.790000000000006      66.010000000000005
   275   1      12.915000000000006      50.225000000000009      67.445000000000007
   276   1      12.915000000000006      50.225000000000009      70.314999999999998
   277   1      12.915000000000006      53.095000000000006      38.745000000000005
   278   1      11.480000000000004      51.660000000000004      40.180000000000007
   279   1      12.915000000000006      53.095000000000006      41.615000000000009
   280   1      11.480000000000004      51.660000000000004      43.050000000000004
   281   1      12.915000000000006      53.095000000000006      44.485000000000007
   282   1      11.480000000000004      51.660000000000004      45.920000000000002
   283   1      12.915000000000006      53.095000000000006      47.355000000000004
   284   1      11.480000000000004      51.660000000000004      48.790000000000006
   285   1      12.915000000000006      53.095000000000006      50.225000000000009
   286   1      11.480000000000004      51.660000000000004      51.660000000000004
   287   1      12.915000000000006      53.095000000000006      53.095000000000006
   288   1      11.480000000000004      51.660000000000004      54.530000000000001
   289   1      12.915000000000006      53.095000000000006      55.965000000000003
   290   1      11.480000000000004      51.660000000000004      57.400000000000006
   291   1      12.915000000000006      53.095000000000006      58.835000000000008
   292   1      11.480000000000004      51.660000000000004      60.270000000000003
   293   1      12.915000000000006      53.095000000000006      61.704999999999991
   294   1      11.480000000000004      51.660000000000004      63.139999999999993
   295   1      12.915000000000006      53.095000000000006      64.575000000000003
   296   1      11.480000000000004      51.660000000000004      66.010000000000005
   297   1      12.915000000000006      53.095000000000006      67.445000000000007
   298   1      11.480000000000004      51.660000000000004      68.879999999999995
   299   1      12.915000000000006      53.095000000000006      70.314999999999998
   300   1      12.915000000000006      55.965000000000003      38.745000000000005
   301   1      11.480000000000004      54.530000000000001      40.180000000000007
   302   1      12.915000000000006      55.965000000000003      41.615000000000009
   303   1      11.480000000000004      54.530000000000001      43.050000000000004
   304   1      12.915000000000006      55.965000000000003      44.485000000000007
   305   1      11.480000000000004      54.530000000000001      45.920000000000002
   306   1      12.915000000000006      55.965000000000003      47.355000000000004
   307   1      11.480000000000004      54.530000000000001      48.790000000000006
   308   1      12.915000000000006      55.965000000000003      50.225000000000009
   309   1      11.480000000000004      54.530000000000001      51.660000000000004
   310   1      12.915000000000006      55.965000000000003      53.095000000000006
   311   1      11.480000000000004      54.530000000000001      54.530000000000001
   312   1      12.915000000000006      55.965000000000003      55.965000000000003
   313   1      11.480000000000004      54.530000000000001      57.400000000000006
   314   1      12.915000000000006      55.965000000000003      58.835000000000008
   315   1      11.480000000000004      54.530000000000001      60.270000000000003
   316   1      12.915000000000006      55.965000000000003      61.704999999999991
   317   1      11.480000000000004      54.530000000000001      63.139999999999993
   318   1      12.915000000000006      55.965000000000003      64.575000000000003
   319   1      11.480000000000004      54.530000000000001      66.010000000000005
   320   1      12.915000000000006      55.965000000000003      67.445000000000007
   321   1      11.480000000000004      54.530000000000001      68.879999999999995
   322   1      12.915000000000006      55.965000000000003      70.314999999999998
   323   1      12.915000000000006      58.835000000000008      38.745000000000005
   324   1      11.480000000000004      57.400000000000006      40.180000000000007
   325   1      12.915000000000006      58.835000000000008      41.615000000000009
   326   1      11.480000000000004      57.400000000000006      43.050000000000004
   327   1      12.915000000000006      58.835000000000008      44.485000000000007
   328   1      11.480000000000004      57.400000000000006      45.920000000000002
   329   1      12.915000000000006      58.835000000000008      47.355000000000004
   330   1      11.480000000000004      57.400000000000006      48.790000000000006
   331   1      12.915000000000006      58.835000000000008      50.225000000000009
   332   1      11.480000000000004      57.400000000000006      51.660000000000004
   333   1      12.915000000000006      58.835000000000008      53.095000000000006
   334   1      11.480000000000004      57.400000000000006      54.530000000000001
   335   1      12.915000000000006      58.835000000000008      55.965000000000003
   336   1      11.480000000000004      57.400000000000006      57.400000000000006
   337   1      12.915000000000006      58.835000000000008      58.835000000000008
   338   1      11.480000000000004      57.400000000000006      60.270000000000003
   339   1      12.915000000000006      58.835000000000008      61.704999999999991
   340   1      11.480000000000004      57.400000000000006      63.139999999999993
   341   1      12.915000000000006      58.835000000000008      64.575000000000003
   342   1      11.480000000000004      57.400000000000006      66.010000000000005
   343   1      12.915000000000006      58.835000000000008      67.445000000000007
   344   1      11.480000000000004      57.400000000000006      68.879999999999995
   345   1      12.915000000000006      58.835000000000008      70.314999999999998
   346   1      12.915000000000006      61.704999999999991      41.615000000000009
   347   1      11.480000000000004      60.270000000000003      43.050000000000004
   348   1      12.915000000000006      61.704999999999991      44.485000000000007
   349   1      11.480000000000004      60.270000000000003      45.920000000000002
   350   1      12.915000000000006      61.704999999999991      47.355000000000004
   351   1      11.480000000000004      60.270000000000003      48.790000000000006
   352   1      12.915000000000006      61.704999999999991      50.225000000000009
   353   1      11.480000000000004      60.270000000000003      51.660000000000004
   354   1      12.915000000000006      61.704999999999991      53.095000000000006
   355   1      11.480000000000004      60.270000000000003      54.530000000000001
   356   1      12.915000000000006      61.704999999999991      55.965000000000003
   357   1      11.480000000000004      60.270000000000003      57.400000000000006
   358   1      12.915000000000006      61.704999999999991      58.835000000000008