model_files/PtNi/PtNi_30000/PtNi_542/PtNi_542_fcc_29823_temp.data (written by ASE) 

29823 	 atoms 
2  atom types
0.0                     114  xlo xhi
0.0                     114  ylo yhi
0.0                     114  zlo zhi


Atoms 

     1   1      1.9149999999999991      55.535000000000004      57.449999999999996
     2   1      1.9149999999999991      57.449999999999996      55.535000000000004
     3   1                       0      57.449999999999996      57.449999999999996
     4   1      1.9149999999999991      57.449999999999996      59.364999999999995
     5   1      1.9149999999999991      59.364999999999995      57.449999999999996
     6   1      3.8299999999999983      51.704999999999998      55.535000000000004
     7   1      5.7450000000000037      49.789999999999999      55.535000000000004
     8   1      5.7450000000000037      51.704999999999998      53.619999999999997
     9   1      3.8299999999999983      51.704999999999998      59.364999999999995
    10   1      5.7450000000000037      49.789999999999999      59.364999999999995
    11   1      5.7450000000000037      51.704999999999998      57.449999999999996
    12   1      5.7450000000000037      51.704999999999998      61.279999999999994
    13   1      3.8299999999999983      55.535000000000004      51.704999999999998
    14   1      5.7450000000000037      53.619999999999997      51.704999999999998
    15   1      5.7450000000000037      55.535000000000004      49.789999999999999
    16   1      3.8299999999999983      53.619999999999997      53.619999999999997
    17   1      3.8299999999999983      55.535000000000004      55.535000000000004
    18   1      5.7450000000000037      53.619999999999997      55.535000000000004
    19   1      5.7450000000000037      55.535000000000004      53.619999999999997
    20   1      3.8299999999999983      53.619999999999997      57.449999999999996
    21   1      3.8299999999999983      55.535000000000004      59.364999999999995
    22   1      5.7450000000000037      53.619999999999997      59.364999999999995
    23   1      5.7450000000000037      55.535000000000004      57.449999999999996
    24   1      3.8299999999999983      53.619999999999997      61.279999999999994
    25   1      3.8299999999999983      55.535000000000004      63.195000000000007
    26   1      5.7450000000000037      53.619999999999997      63.195000000000007
    27   1      5.7450000000000037      55.535000000000004      61.279999999999994
    28   1      5.7450000000000037      55.535000000000004      65.109999999999999
    29   1      3.8299999999999983      59.364999999999995      51.704999999999998
    30   1      5.7450000000000037      57.449999999999996      51.704999999999998
    31   1      5.7450000000000037      59.364999999999995      49.789999999999999
    32   1      3.8299999999999983      57.449999999999996      53.619999999999997
    33   1      3.8299999999999983      59.364999999999995      55.535000000000004
    34   1      5.7450000000000037      57.449999999999996      55.535000000000004
    35   1      5.7450000000000037      59.364999999999995      53.619999999999997
    36   1      3.8299999999999983      57.449999999999996      57.449999999999996
    37   1      3.8299999999999983      59.364999999999995      59.364999999999995
    38   1      5.7450000000000037      57.449999999999996      59.364999999999995
    39   1      5.7450000000000037      59.364999999999995      57.449999999999996
    40   1      3.8299999999999983      57.449999999999996      61.279999999999994
    41   1      3.8299999999999983      59.364999999999995      63.195000000000007
    42   1      5.7450000000000037      57.449999999999996      63.195000000000007
    43   1      5.7450000000000037      59.364999999999995      61.279999999999994
    44   1      5.7450000000000037      59.364999999999995      65.109999999999999
    45   1      5.7450000000000037      61.279999999999994      51.704999999999998
    46   1      3.8299999999999983      61.279999999999994      53.619999999999997
    47   1      3.8299999999999983      63.195000000000007      55.535000000000004
    48   1      5.7450000000000037      61.279999999999994      55.535000000000004
    49   1      5.7450000000000037      63.195000000000007      53.619999999999997
    50   1      3.8299999999999983      61.279999999999994      57.449999999999996
    51   1      3.8299999999999983      63.195000000000007      59.364999999999995
    52   1      5.7450000000000037      61.279999999999994      59.364999999999995
    53   1      5.7450000000000037      63.195000000000007      57.449999999999996
    54   1      3.8299999999999983      61.279999999999994      61.279999999999994
    55   1      5.7450000000000037      61.279999999999994      63.195000000000007
    56   1      5.7450000000000037      63.195000000000007      61.279999999999994
    57   1      5.7450000000000037      65.109999999999999      55.535000000000004
    58   1      5.7450000000000037      65.109999999999999      59.364999999999995
    59   1      9.5750000000000028      44.045000000000002      57.449999999999996
    60   1      9.5750000000000028                  47.875      49.789999999999999
    61   1      7.6600000000000028                  47.875      55.535000000000004
    62   1      9.5750000000000028      45.960000000000001      55.535000000000004
    63   1      9.5750000000000028                  47.875      53.619999999999997
    64   1      7.6600000000000028      45.960000000000001      57.449999999999996
    65   1      7.6600000000000028                  47.875      59.364999999999995
    66   1      9.5750000000000028      45.960000000000001      59.364999999999995
    67   1      9.5750000000000028                  47.875      57.449999999999996
    68   1      9.5750000000000028                  47.875      61.279999999999994
    69   1      9.5750000000000028                  47.875      65.109999999999999
    70   1      9.5750000000000028      49.789999999999999                  47.875
    71   1      7.6600000000000028      49.789999999999999      49.789999999999999
    72   1      7.6600000000000028      51.704999999999998      51.704999999999998
    73   1      9.5750000000000028      49.789999999999999      51.704999999999998
    74   1      9.5750000000000028      51.704999999999998      49.789999999999999
    75   1      7.6600000000000028      49.789999999999999      53.619999999999997
    76   1      7.6600000000000028      51.704999999999998      55.535000000000004
    77   1      9.5750000000000028      49.789999999999999      55.535000000000004
    78   1      9.5750000000000028      51.704999999999998      53.619999999999997
    79   1      7.6600000000000028      49.789999999999999      57.449999999999996
    80   1      7.6600000000000028      51.704999999999998      59.364999999999995
    81   1      9.5750000000000028      49.789999999999999      59.364999999999995
    82   1      9.5750000000000028      51.704999999999998      57.449999999999996
    83   1      7.6600000000000028      49.789999999999999      61.279999999999994
    84   1      7.6600000000000028      51.704999999999998      63.195000000000007
    85   1      9.5750000000000028      49.789999999999999      63.195000000000007
    86   1      9.5750000000000028      51.704999999999998      61.279999999999994
    87   1      7.6600000000000028      49.789999999999999      65.109999999999999
    88   1      9.5750000000000028      49.789999999999999      67.024999999999991
    89   1      9.5750000000000028      51.704999999999998      65.109999999999999
    90   1      7.6600000000000028      55.535000000000004                  47.875
    91   1      9.5750000000000028      53.619999999999997                  47.875
    92   1      9.5750000000000028      55.535000000000004      45.960000000000001
    93   1      7.6600000000000028      53.619999999999997      49.789999999999999
    94   1      7.6600000000000028      55.535000000000004      51.704999999999998
    95   1      9.5750000000000028      53.619999999999997      51.704999999999998
    96   1      9.5750000000000028      55.535000000000004      49.789999999999999
    97   1      7.6600000000000028      53.619999999999997      53.619999999999997
    98   1      7.6600000000000028      55.535000000000004      55.535000000000004
    99   1      9.5750000000000028      53.619999999999997      55.535000000000004
   100   1      9.5750000000000028      55.535000000000004      53.619999999999997
   101   1      7.6600000000000028      53.619999999999997      57.449999999999996
   102   1      7.6600000000000028      55.535000000000004      59.364999999999995
   103   1      9.5750000000000028      53.619999999999997      59.364999999999995
   104   1      9.5750000000000028      55.535000000000004      57.449999999999996
   105   1      7.6600000000000028      53.619999999999997      61.279999999999994
   106   1      7.6600000000000028      55.535000000000004      63.195000000000007
   107   1      9.5750000000000028      53.619999999999997      63.195000000000007
   108   1      9.5750000000000028      55.535000000000004      61.279999999999994
   109   1      7.6600000000000028      53.619999999999997      65.109999999999999
   110   1      7.6600000000000028      55.535000000000004      67.024999999999991
   111   1      9.5750000000000028      53.619999999999997      67.024999999999991
   112   1      9.5750000000000028      55.535000000000004      65.109999999999999
   113   1      9.5750000000000028      55.535000000000004      68.939999999999998
   114   1      9.5750000000000028      57.449999999999996      44.045000000000002
   115   1      7.6600000000000028      57.449999999999996      45.960000000000001
   116   1      7.6600000000000028      59.364999999999995                  47.875
   117   1      9.5750000000000028      57.449999999999996                  47.875
   118   1      9.5750000000000028      59.364999999999995      45.960000000000001
   119   1      7.6600000000000028      57.449999999999996      49.789999999999999
   120   1      7.6600000000000028      59.364999999999995      51.704999999999998
   121   1      9.5750000000000028      57.449999999999996      51.704999999999998
   122   1      9.5750000000000028      59.364999999999995      49.789999999999999
   123   1      7.6600000000000028      57.449999999999996      53.619999999999997
   124   1      7.6600000000000028      59.364999999999995      55.535000000000004
   125   1      9.5750000000000028      57.449999999999996      55.535000000000004
   126   1      9.5750000000000028      59.364999999999995      53.619999999999997
   127   1      7.6600000000000028      57.449999999999996      57.449999999999996
   128   1      7.6600000000000028      59.364999999999995      59.364999999999995
   129   1      9.5750000000000028      57.449999999999996      59.364999999999995
   130   1      9.5750000000000028      59.364999999999995      57.449999999999996
   131   1      7.6600000000000028      57.449999999999996      61.279999999999994
   132   1      7.6600000000000028      59.364999999999995      63.195000000000007
   133   1      9.5750000000000028      57.449999999999996      63.195000000000007
   134   1      9.5750000000000028      59.364999999999995      61.279999999999994
   135   1      7.6600000000000028      57.449999999999996      65.109999999999999
   136   1      7.6600000000000028      59.364999999999995      67.024999999999991
   137   1      9.5750000000000028      57.449999999999996      67.024999999999991
   138   1      9.5750000000000028      59.364999999999995      65.109999999999999
   139   1      7.6600000000000028      57.449999999999996      68.939999999999998
   140   1      9.5750000000000028      57.449999999999996       70.85499999999999
   141   1      9.5750000000000028      59.364999999999995      68.939999999999998
   142   1      9.5750000000000028      61.279999999999994                  47.875
   143   1      7.6600000000000028      61.279999999999994      49.789999999999999
   144   1      7.6600000000000028      63.195000000000007      51.704999999999998
   145   1      9.5750000000000028      61.279999999999994      51.704999999999998
   146   1      9.5750000000000028      63.195000000000007      49.789999999999999
   147   1      7.6600000000000028      61.279999999999994      53.619999999999997
   148   1      7.6600000000000028      63.195000000000007      55.535000000000004
   149   1      9.5750000000000028      61.279999999999994      55.535000000000004
   150   1      9.5750000000000028      63.195000000000007      53.619999999999997
   151   1      7.6600000000000028      61.279999999999994      57.449999999999996
   152   1      7.6600000000000028      63.195000000000007      59.364999999999995
   153   1      9.5750000000000028      61.279999999999994      59.364999999999995
   154   1      9.5750000000000028      63.195000000000007      57.449999999999996
   155   1      7.6600000000000028      61.279999999999994      61.279999999999994
   156   1      7.6600000000000028      63.195000000000007      63.195000000000007
   157   1      9.5750000000000028      61.279999999999994      63.195000000000007
   158   1      9.5750000000000028      63.195000000000007      61.279999999999994
   159   1      7.6600000000000028      61.279999999999994      65.109999999999999
   160   1      9.5750000000000028      61.279999999999994      67.024999999999991
   161   1      9.5750000000000028      63.195000000000007      65.109999999999999
   162   1      9.5750000000000028      65.109999999999999                  47.875
   163   1      7.6600000000000028      65.109999999999999      49.789999999999999
   164   1      9.5750000000000028      65.109999999999999      51.704999999999998
   165   1      9.5750000000000028      67.024999999999991      49.789999999999999
   166   1      7.6600000000000028      65.109999999999999      53.619999999999997
   167   1      7.6600000000000028      67.024999999999991      55.535000000000004
   168   1      9.5750000000000028      65.109999999999999      55.535000000000004
   169   1      9.5750000000000028      67.024999999999991      53.619999999999997
   170   1      7.6600000000000028      65.109999999999999      57.449999999999996
   171   1      7.6600000000000028      67.024999999999991      59.364999999999995
   172   1      9.5750000000000028      65.109999999999999      59.364999999999995
   173   1      9.5750000000000028      67.024999999999991      57.449999999999996
   174   1      7.6600000000000028      65.109999999999999      61.279999999999994
   175   1      9.5750000000000028      65.109999999999999      63.195000000000007
   176   1      9.5750000000000028      67.024999999999991      61.279999999999994
   177   1      7.6600000000000028      65.109999999999999      65.109999999999999
   178   1      9.5750000000000028      65.109999999999999      67.024999999999991
   179   1      9.5750000000000028      67.024999999999991      65.109999999999999
   180   1      9.5750000000000028      68.939999999999998      55.535000000000004
   181   1      7.6600000000000028      68.939999999999998      57.449999999999996
   182   1      9.5750000000000028      68.939999999999998      59.364999999999995
   183   1      9.5750000000000028       70.85499999999999      57.449999999999996
   184   1      13.404999999999999      40.214999999999996      57.449999999999996
   185   1      11.490000000000002      44.045000000000002      51.704999999999998
   186   1      13.404999999999999      42.130000000000003      51.704999999999998
   187   1      13.404999999999999      44.045000000000002      49.789999999999999
   188   1      11.490000000000002      44.045000000000002      55.535000000000004
   189   1      13.404999999999999      42.130000000000003      55.535000000000004
   190   1      13.404999999999999      44.045000000000002      53.619999999999997
   191   1      11.490000000000002      42.130000000000003      57.449999999999996
   192   1      11.490000000000002      44.045000000000002      59.364999999999995
   193   1      13.404999999999999      42.130000000000003      59.364999999999995
   194   1      13.404999999999999      44.045000000000002      57.449999999999996
   195   1      11.490000000000002      44.045000000000002      63.195000000000007
   196   1      13.404999999999999      42.130000000000003      63.195000000000007
   197   1      13.404999999999999      44.045000000000002      61.279999999999994
   198   1      13.404999999999999      44.045000000000002      65.109999999999999
   199   1      11.490000000000002                  47.875                  47.875
   200   1      13.404999999999999      45.960000000000001                  47.875
   201   1      13.404999999999999                  47.875      45.960000000000001
   202   1      11.490000000000002      45.960000000000001      49.789999999999999
   203   1      11.490000000000002                  47.875      51.704999999999998
   204   1      13.404999999999999      45.960000000000001      51.704999999999998
   205   1      13.404999999999999                  47.875      49.789999999999999
   206   1      11.490000000000002      45.960000000000001      53.619999999999997
   207   1      11.490000000000002                  47.875      55.535000000000004
   208   1      13.404999999999999      45.960000000000001      55.535000000000004
   209   1      13.404999999999999                  47.875      53.619999999999997
   210   1      11.490000000000002      45.960000000000001      57.449999999999996
   211   1      11.490000000000002                  47.875      59.364999999999995
   212   1      13.404999999999999      45.960000000000001      59.364999999999995
   213   1      13.404999999999999                  47.875      57.449999999999996
   214   1      11.490000000000002      45.960000000000001      61.279999999999994
   215   1      11.490000000000002                  47.875      63.195000000000007
   216   1      13.404999999999999      45.960000000000001      63.195000000000007
   217   1      13.404999999999999                  47.875      61.279999999999994
   218   1      11.490000000000002      45.960000000000001      65.109999999999999
   219   1      11.490000000000002                  47.875      67.024999999999991
   220   1      13.404999999999999      45.960000000000001      67.024999999999991
   221   1      13.404999999999999                  47.875      65.109999999999999
   222   1      13.404999999999999                  47.875      68.939999999999998
   223   1      11.490000000000002      51.704999999999998      44.045000000000002
   224   1      13.404999999999999      49.789999999999999      44.045000000000002
   225   1      13.404999999999999      51.704999999999998      42.130000000000003
   226   1      11.490000000000002      49.789999999999999      45.960000000000001
   227   1      11.490000000000002      51.704999999999998                  47.875
   228   1      13.404999999999999      49.789999999999999                  47.875
   229   1      13.404999999999999      51.704999999999998      45.960000000000001
   230   1      11.490000000000002      49.789999999999999      49.789999999999999
   231   1      11.490000000000002      51.704999999999998      51.704999999999998
   232   1      13.404999999999999      49.789999999999999      51.704999999999998
   233   1      13.404999999999999      51.704999999999998      49.789999999999999
   234   1      11.490000000000002      49.789999999999999      53.619999999999997
   235   1      11.490000000000002      51.704999999999998      55.535000000000004
   236   1      13.404999999999999      49.789999999999999      55.535000000000004
   237   1      13.404999999999999      51.704999999999998      53.619999999999997
   238   1      11.490000000000002      49.789999999999999      57.449999999999996
   239   1      11.490000000000002      51.704999999999998      59.364999999999995
   240   1      13.404999999999999      49.789999999999999      59.364999999999995
   241   1      13.404999999999999      51.704999999999998      57.449999999999996
   242   1      11.490000000000002      49.789999999999999      61.279999999999994
   243   1      11.490000000000002      51.704999999999998      63.195000000000007
   244   1      13.404999999999999      49.789999999999999      63.195000000000007
   245   1      13.404999999999999      51.704999999999998      61.279999999999994
   246   1      11.490000000000002      49.789999999999999      65.109999999999999
   247   1      11.490000000000002      51.704999999999998      67.024999999999991
   248   1      13.404999999999999      49.789999999999999      67.024999999999991
   249   1      13.404999999999999      51.704999999999998      65.109999999999999
   250   1      11.490000000000002      49.789999999999999      68.939999999999998
   251   1      11.490000000000002      51.704999999999998       70.85499999999999
   252   1      13.404999999999999      49.789999999999999       70.85499999999999
   253   1      13.404999999999999      51.704999999999998      68.939999999999998
   254   1      13.404999999999999      51.704999999999998      72.769999999999996
   255   1      11.490000000000002      55.535000000000004      44.045000000000002
   256   1      13.404999999999999      53.619999999999997      44.045000000000002
   257   1      13.404999999999999      55.535000000000004      42.130000000000003
   258   1      11.490000000000002      53.619999999999997      45.960000000000001
   259   1      11.490000000000002      55.535000000000004                  47.875
   260   1      13.404999999999999      53.619999999999997                  47.875
   261   1      13.404999999999999      55.535000000000004      45.960000000000001
   262   1      11.490000000000002      53.619999999999997      49.789999999999999
   263   1      11.490000000000002      55.535000000000004      51.704999999999998
   264   1      13.404999999999999      53.619999999999997      51.704999999999998
   265   1      13.404999999999999      55.535000000000004      49.789999999999999
   266   1      11.490000000000002      53.619999999999997      53.619999999999997
   267   1      11.490000000000002      55.535000000000004      55.535000000000004
   268   1      13.404999999999999      53.619999999999997      55.535000000000004
   269   1      13.404999999999999      55.535000000000004      53.619999999999997
   270   1      11.490000000000002      53.619999999999997      57.449999999999996
   271   1      11.490000000000002      55.535000000000004      59.364999999999995
   272   1      13.404999999999999      53.619999999999997      59.364999999999995
   273   1      13.404999999999999      55.535000000000004      57.449999999999996
   274   1      11.490000000000002      53.619999999999997      61.279999999999994
   275   1      11.490000000000002      55.535000000000004      63.195000000000007
   276   1      13.404999999999999      53.619999999999997      63.195000000000007
   277   1      13.404999999999999      55.535000000000004      61.279999999999994
   278   1      11.490000000000002      53.619999999999997      65.109999999999999
   279   1      11.490000000000002      55.535000000000004      67.024999999999991
   280   1      13.404999999999999      53.619999999999997      67.024999999999991
   281   1      13.404999999999999      55.535000000000004      65.109999999999999
   282   1      11.490000000000002      53.619999999999997      68.939999999999998
   283   1      11.490000000000002      55.535000000000004       70.85499999999999
   284   1      13.404999999999999      53.619999999999997       70.85499999999999
   285   1      13.404999999999999      55.535000000000004      68.939999999999998
   286   1      13.404999999999999      55.535000000000004      72.769999999999996
   287   1      13.404999999999999      57.449999999999996      40.214999999999996
   288   1      11.490000000000002      57.449999999999996      42.130000000000003
   289   1      11.490000000000002      59.364999999999995      44.045000000000002
   290   1      13.404999999999999      57.449999999999996      44.045000000000002
   291   1      13.404999999999999      59.364999999999995      42.130000000000003
   292   1      11.490000000000002      57.449999999999996      45.960000000000001
   293   1      11.490000000000002      59.364999999999995                  47.875
   294   1      13.404999999999999      57.449999999999996                  47.875
   295   1      13.404999999999999      59.364999999999995      45.960000000000001
   296   1      11.490000000000002      57.449999999999996      49.789999999999999
   297   1      11.490000000000002      59.364999999999995      51.704999999999998
   298   1      13.404999999999999      57.449999999999996      51.704999999999998
   299   1      13.404999999999999      59.364999999999995      49.789999999999999
   300   1      11.490000000000002      57.449999999999996      53.619999999999997
   301   1      11.490000000000002      59.364999999999995      55.535000000000004
   302   1      13.404999999999999      57.449999999999996      55.535000000000004
   303   1      13.404999999999999      59.364999999999995      53.619999999999997
   304   1      11.490000000000002      57.449999999999996      57.449999999999996
   305   1      11.490000000000002      59.364999999999995      59.364999999999995
   306   1      13.404999999999999      57.449999999999996      59.364999999999995
   307   1      13.404999999999999      59.364999999999995      57.449999999999996
   308   1      11.490000000000002      57.449999999999996      61.279999999999994
   309   1      11.490000000000002      59.364999999999995      63.195000000000007
   310   1      13.404999999999999      57.449999999999996      63.195000000000007
   311   1      13.404999999999999      59.364999999999995      61.279999999999994
   312   1      11.490000000000002      57.449999999999996      65.109999999999999
   313   1      11.490000000000002      59.364999999999995      67.024999999999991
   314   1      13.404999999999999      57.449999999999996      67.024999999999991
   315   1      13.404999999999999      59.364999999999995      65.109999999999999
   316   1      11.490000000000002      57.449999999999996      68.939999999999998
   317   1      11.490000000000002      59.364999999999995       70.85499999999999
   318   1      13.404999999999999      57.449999999999996       70.85499999999999
   319   1      13.404999999999999      59.364999999999995      68.939999999999998
   320   1      11.490000000000002      57.449999999999996      72.769999999999996
   321   1      13.404999999999999      57.449999999999996      74.685000000000002
   322   1      13.404999999999999      59.364999999999995      72.769999999999996
   323   1      11.490000000000002      63.195000000000007      44.045000000000002
   324   1      13.404999999999999      61.279999999999994      44.045000000000002
   325   1      13.404999999999999      63.195000000000007      42.130000000000003
   326   1      11.490000000000002      61.279999999999994      45.960000000000001
   327   1      11.490000000000002      63.195000000000007                  47.875
   328   1      13.404999999999999      61.279999999999994                  47.875
   329   1      13.404999999999999      63.195000000000007      45.960000000000001
   330   1      11.490000000000002      61.279999999999994      49.789999999999999
   331   1      11.490000000000002      63.195000000000007      51.704999999999998
   332   1      13.404999999999999      61.279999999999994      51.704999999999998
   333   1      13.404999999999999      63.195000000000007      49.789999999999999
   334   1      11.490000000000002      61.279999999999994      53.619999999999997
   335   1      11.490000000000002      63.195000000000007      55.535000000000004
   336   1      13.404999999999999      61.279999999999994      55.535000000000004
   337   1      13.404999999999999      63.195000000000007      53.619999999999997
   338   1      11.490000000000002      61.279999999999994      57.449999999999996
   339   1      11.490000000000002      63.195000000000007      59.364999999999995
   340   1      13.404999999999999      61.279999999999994      59.364999999999995
   341   1      13.404999999999999      63.195000000000007      57.449999999999996
   342   1      11.490000000000002      61.279999999999994      61.279999999999994
   343   1      11.490000000000002      63.195000000000007      63.195000000000007
   344   1      13.404999999999999      61.279999999999994      63.195000000000007
   345   1      13.404999999999999      63.195000000000007      61.279999999999994
   346   1      11.490000000000002      61.279999999999994      65.109999999999999
   347   1      11.490000000000002      63.195000000000007      67.024999999999991
   348   1      13.404999999999999      61.279999999999994      67.024999999999991
   349   1      13.404999999999999      63.195000000000007      65.109999999999999
   350   1      11.490000000000002      61.279999999999994      68.939999999999998
   351   1      11.490000000000002      63.195000000000007       70.85499999999999
   352   1      13.404999999999999      61.279999999999994       70.85499999999999
   353   1      13.404999999999999      63.195000000000007      68.939999999999998
   354   1      13.404999999999999      63.195000000000007      72.769999999999996
   355   1      13.404999999999999      65.109999999999999      44.045000000000002
   356   1      11.490000000000002      65.109999999999999      45.960000000000001
   357   1      11.490000000000002      67.024999999999991                  47.875
   358   1      13.404999999999999      65.109999999999999                  47.875