model_files/Pt/Pt_30000/Pt_430/data.Pt_430_fcc_29909 (written by ASE) 

29909 	 atoms 
1  atom types
0.0                     111  xlo xhi
0.0                     111  ylo yhi
0.0                     111  zlo zhi


Atoms 

     1   1      1.9600000000000009      52.919999999999995      54.879999999999995
     2   1      1.9600000000000009      54.879999999999995      52.919999999999995
     3   1                       0      54.879999999999995      54.879999999999995
     4   1      1.9600000000000009      54.879999999999995      56.839999999999996
     5   1      1.9600000000000009      56.839999999999996      54.879999999999995
     6   1      3.9200000000000017                      49                      49
     7   1      5.8799999999999955      47.039999999999999                      49
     8   1      5.8799999999999955                      49      47.039999999999999
     9   1      3.9200000000000017                      49      52.919999999999995
    10   1      5.8799999999999955      47.039999999999999      52.919999999999995
    11   1      5.8799999999999955                      49      50.959999999999994
    12   1      3.9200000000000017                      49      56.839999999999996
    13   1      5.8799999999999955      47.039999999999999      56.839999999999996
    14   1      5.8799999999999955                      49      54.879999999999995
    15   1      3.9200000000000017                      49      60.759999999999998
    16   1      5.8799999999999955      47.039999999999999      60.759999999999998
    17   1      5.8799999999999955                      49       58.79999999999999
    18   1      5.8799999999999955                      49      62.719999999999999
    19   1      3.9200000000000017      52.919999999999995                      49
    20   1      5.8799999999999955      50.959999999999994                      49
    21   1      5.8799999999999955      52.919999999999995      47.039999999999999
    22   1      3.9200000000000017      50.959999999999994      50.959999999999994
    23   1      3.9200000000000017      52.919999999999995      52.919999999999995
    24   1      5.8799999999999955      50.959999999999994      52.919999999999995
    25   1      5.8799999999999955      52.919999999999995      50.959999999999994
    26   1      3.9200000000000017      50.959999999999994      54.879999999999995
    27   1      3.9200000000000017      52.919999999999995      56.839999999999996
    28   1      5.8799999999999955      50.959999999999994      56.839999999999996
    29   1      5.8799999999999955      52.919999999999995      54.879999999999995
    30   1      3.9200000000000017      50.959999999999994       58.79999999999999
    31   1      3.9200000000000017      52.919999999999995      60.759999999999998
    32   1      5.8799999999999955      50.959999999999994      60.759999999999998
    33   1      5.8799999999999955      52.919999999999995       58.79999999999999
    34   1      5.8799999999999955      52.919999999999995      62.719999999999999
    35   1      3.9200000000000017      56.839999999999996                      49
    36   1      5.8799999999999955      54.879999999999995                      49
    37   1      5.8799999999999955      56.839999999999996      47.039999999999999
    38   1      3.9200000000000017      54.879999999999995      50.959999999999994
    39   1      3.9200000000000017      56.839999999999996      52.919999999999995
    40   1      5.8799999999999955      54.879999999999995      52.919999999999995
    41   1      5.8799999999999955      56.839999999999996      50.959999999999994
    42   1      3.9200000000000017      54.879999999999995      54.879999999999995
    43   1      3.9200000000000017      56.839999999999996      56.839999999999996
    44   1      5.8799999999999955      54.879999999999995      56.839999999999996
    45   1      5.8799999999999955      56.839999999999996      54.879999999999995
    46   1      3.9200000000000017      54.879999999999995       58.79999999999999
    47   1      3.9200000000000017      56.839999999999996      60.759999999999998
    48   1      5.8799999999999955      54.879999999999995      60.759999999999998
    49   1      5.8799999999999955      56.839999999999996       58.79999999999999
    50   1      5.8799999999999955      56.839999999999996      62.719999999999999
    51   1      3.9200000000000017      60.759999999999998                      49
    52   1      5.8799999999999955       58.79999999999999                      49
    53   1      5.8799999999999955      60.759999999999998      47.039999999999999
    54   1      3.9200000000000017       58.79999999999999      50.959999999999994
    55   1      3.9200000000000017      60.759999999999998      52.919999999999995
    56   1      5.8799999999999955       58.79999999999999      52.919999999999995
    57   1      5.8799999999999955      60.759999999999998      50.959999999999994
    58   1      3.9200000000000017       58.79999999999999      54.879999999999995
    59   1      3.9200000000000017      60.759999999999998      56.839999999999996
    60   1      5.8799999999999955       58.79999999999999      56.839999999999996
    61   1      5.8799999999999955      60.759999999999998      54.879999999999995
    62   1      3.9200000000000017       58.79999999999999       58.79999999999999
    63   1      3.9200000000000017      60.759999999999998      60.759999999999998
    64   1      5.8799999999999955       58.79999999999999      60.759999999999998
    65   1      5.8799999999999955      60.759999999999998       58.79999999999999
    66   1      5.8799999999999955      60.759999999999998      62.719999999999999
    67   1      5.8799999999999955      62.719999999999999                      49
    68   1      5.8799999999999955      62.719999999999999      52.919999999999995
    69   1      5.8799999999999955      62.719999999999999      56.839999999999996
    70   1      5.8799999999999955      62.719999999999999      60.759999999999998
    71   1      9.7999999999999972      41.159999999999997      43.119999999999997
    72   1      9.7999999999999972      41.159999999999997      47.039999999999999
    73   1      9.7999999999999972      41.159999999999997      50.959999999999994
    74   1      9.7999999999999972      41.159999999999997      54.879999999999995
    75   1      9.7999999999999972      41.159999999999997       58.79999999999999
    76   1      9.7999999999999972      41.159999999999997      62.719999999999999
    77   1      9.7999999999999972      41.159999999999997      66.640000000000001
    78   1      9.7999999999999972      43.119999999999997      41.159999999999997
    79   1      7.8399999999999972      45.079999999999998      45.079999999999998
    80   1      9.7999999999999972      43.119999999999997      45.079999999999998
    81   1      9.7999999999999972      45.079999999999998      43.119999999999997
    82   1      7.8399999999999972      45.079999999999998                      49
    83   1      9.7999999999999972      43.119999999999997                      49
    84   1      9.7999999999999972      45.079999999999998      47.039999999999999
    85   1      7.8399999999999972      45.079999999999998      52.919999999999995
    86   1      9.7999999999999972      43.119999999999997      52.919999999999995
    87   1      9.7999999999999972      45.079999999999998      50.959999999999994
    88   1      7.8399999999999972      45.079999999999998      56.839999999999996
    89   1      9.7999999999999972      43.119999999999997      56.839999999999996
    90   1      9.7999999999999972      45.079999999999998      54.879999999999995
    91   1      7.8399999999999972      45.079999999999998      60.759999999999998
    92   1      9.7999999999999972      43.119999999999997      60.759999999999998
    93   1      9.7999999999999972      45.079999999999998       58.79999999999999
    94   1      7.8399999999999972      45.079999999999998      64.679999999999993
    95   1      9.7999999999999972      43.119999999999997      64.679999999999993
    96   1      9.7999999999999972      45.079999999999998      62.719999999999999
    97   1      9.7999999999999972      43.119999999999997      68.599999999999994
    98   1      9.7999999999999972      45.079999999999998      66.640000000000001
    99   1      9.7999999999999972      47.039999999999999      41.159999999999997
   100   1      7.8399999999999972                      49      45.079999999999998
   101   1      9.7999999999999972      47.039999999999999      45.079999999999998
   102   1      9.7999999999999972                      49      43.119999999999997
   103   1      7.8399999999999972      47.039999999999999      47.039999999999999
   104   1      7.8399999999999972                      49                      49
   105   1      9.7999999999999972      47.039999999999999                      49
   106   1      9.7999999999999972                      49      47.039999999999999
   107   1      7.8399999999999972      47.039999999999999      50.959999999999994
   108   1      7.8399999999999972                      49      52.919999999999995
   109   1      9.7999999999999972      47.039999999999999      52.919999999999995
   110   1      9.7999999999999972                      49      50.959999999999994
   111   1      7.8399999999999972      47.039999999999999      54.879999999999995
   112   1      7.8399999999999972                      49      56.839999999999996
   113   1      9.7999999999999972      47.039999999999999      56.839999999999996
   114   1      9.7999999999999972                      49      54.879999999999995
   115   1      7.8399999999999972      47.039999999999999       58.79999999999999
   116   1      7.8399999999999972                      49      60.759999999999998
   117   1      9.7999999999999972      47.039999999999999      60.759999999999998
   118   1      9.7999999999999972                      49       58.79999999999999
   119   1      7.8399999999999972      47.039999999999999      62.719999999999999
   120   1      7.8399999999999972                      49      64.679999999999993
   121   1      9.7999999999999972      47.039999999999999      64.679999999999993
   122   1      9.7999999999999972                      49      62.719999999999999
   123   1      9.7999999999999972      47.039999999999999      68.599999999999994
   124   1      9.7999999999999972                      49      66.640000000000001
   125   1      9.7999999999999972      50.959999999999994      41.159999999999997
   126   1      7.8399999999999972      52.919999999999995      45.079999999999998
   127   1      9.7999999999999972      50.959999999999994      45.079999999999998
   128   1      9.7999999999999972      52.919999999999995      43.119999999999997
   129   1      7.8399999999999972      50.959999999999994      47.039999999999999
   130   1      7.8399999999999972      52.919999999999995                      49
   131   1      9.7999999999999972      50.959999999999994                      49
   132   1      9.7999999999999972      52.919999999999995      47.039999999999999
   133   1      7.8399999999999972      50.959999999999994      50.959999999999994
   134   1      7.8399999999999972      52.919999999999995      52.919999999999995
   135   1      9.7999999999999972      50.959999999999994      52.919999999999995
   136   1      9.7999999999999972      52.919999999999995      50.959999999999994
   137   1      7.8399999999999972      50.959999999999994      54.879999999999995
   138   1      7.8399999999999972      52.919999999999995      56.839999999999996
   139   1      9.7999999999999972      50.959999999999994      56.839999999999996
   140   1      9.7999999999999972      52.919999999999995      54.879999999999995
   141   1      7.8399999999999972      50.959999999999994       58.79999999999999
   142   1      7.8399999999999972      52.919999999999995      60.759999999999998
   143   1      9.7999999999999972      50.959999999999994      60.759999999999998
   144   1      9.7999999999999972      52.919999999999995       58.79999999999999
   145   1      7.8399999999999972      50.959999999999994      62.719999999999999
   146   1      7.8399999999999972      52.919999999999995      64.679999999999993
   147   1      9.7999999999999972      50.959999999999994      64.679999999999993
   148   1      9.7999999999999972      52.919999999999995      62.719999999999999
   149   1      9.7999999999999972      50.959999999999994      68.599999999999994
   150   1      9.7999999999999972      52.919999999999995      66.640000000000001
   151   1      9.7999999999999972      54.879999999999995      41.159999999999997
   152   1      7.8399999999999972      56.839999999999996      45.079999999999998
   153   1      9.7999999999999972      54.879999999999995      45.079999999999998
   154   1      9.7999999999999972      56.839999999999996      43.119999999999997
   155   1      7.8399999999999972      54.879999999999995      47.039999999999999
   156   1      7.8399999999999972      56.839999999999996                      49
   157   1      9.7999999999999972      54.879999999999995                      49
   158   1      9.7999999999999972      56.839999999999996      47.039999999999999
   159   1      7.8399999999999972      54.879999999999995      50.959999999999994
   160   1      7.8399999999999972      56.839999999999996      52.919999999999995
   161   1      9.7999999999999972      54.879999999999995      52.919999999999995
   162   1      9.7999999999999972      56.839999999999996      50.959999999999994
   163   1      7.8399999999999972      54.879999999999995      54.879999999999995
   164   1      7.8399999999999972      56.839999999999996      56.839999999999996
   165   1      9.7999999999999972      54.879999999999995      56.839999999999996
   166   1      9.7999999999999972      56.839999999999996      54.879999999999995
   167   1      7.8399999999999972      54.879999999999995       58.79999999999999
   168   1      7.8399999999999972      56.839999999999996      60.759999999999998
   169   1      9.7999999999999972      54.879999999999995      60.759999999999998
   170   1      9.7999999999999972      56.839999999999996       58.79999999999999
   171   1      7.8399999999999972      54.879999999999995      62.719999999999999
   172   1      7.8399999999999972      56.839999999999996      64.679999999999993
   173   1      9.7999999999999972      54.879999999999995      64.679999999999993
   174   1      9.7999999999999972      56.839999999999996      62.719999999999999
   175   1      9.7999999999999972      54.879999999999995      68.599999999999994
   176   1      9.7999999999999972      56.839999999999996      66.640000000000001
   177   1      9.7999999999999972       58.79999999999999      41.159999999999997
   178   1      7.8399999999999972      60.759999999999998      45.079999999999998
   179   1      9.7999999999999972       58.79999999999999      45.079999999999998
   180   1      9.7999999999999972      60.759999999999998      43.119999999999997
   181   1      7.8399999999999972       58.79999999999999      47.039999999999999
   182   1      7.8399999999999972      60.759999999999998                      49
   183   1      9.7999999999999972       58.79999999999999                      49
   184   1      9.7999999999999972      60.759999999999998      47.039999999999999
   185   1      7.8399999999999972       58.79999999999999      50.959999999999994
   186   1      7.8399999999999972      60.759999999999998      52.919999999999995
   187   1      9.7999999999999972       58.79999999999999      52.919999999999995
   188   1      9.7999999999999972      60.759999999999998      50.959999999999994
   189   1      7.8399999999999972       58.79999999999999      54.879999999999995
   190   1      7.8399999999999972      60.759999999999998      56.839999999999996
   191   1      9.7999999999999972       58.79999999999999      56.839999999999996
   192   1      9.7999999999999972      60.759999999999998      54.879999999999995
   193   1      7.8399999999999972       58.79999999999999       58.79999999999999
   194   1      7.8399999999999972      60.759999999999998      60.759999999999998
   195   1      9.7999999999999972       58.79999999999999      60.759999999999998
   196   1      9.7999999999999972      60.759999999999998       58.79999999999999
   197   1      7.8399999999999972       58.79999999999999      62.719999999999999
   198   1      7.8399999999999972      60.759999999999998      64.679999999999993
   199   1      9.7999999999999972       58.79999999999999      64.679999999999993
   200   1      9.7999999999999972      60.759999999999998      62.719999999999999
   201   1      9.7999999999999972       58.79999999999999      68.599999999999994
   202   1      9.7999999999999972      60.759999999999998      66.640000000000001
   203   1      9.7999999999999972      62.719999999999999      41.159999999999997
   204   1      7.8399999999999972      64.679999999999993      45.079999999999998
   205   1      9.7999999999999972      62.719999999999999      45.079999999999998
   206   1      9.7999999999999972      64.679999999999993      43.119999999999997
   207   1      7.8399999999999972      62.719999999999999      47.039999999999999
   208   1      7.8399999999999972      64.679999999999993                      49
   209   1      9.7999999999999972      62.719999999999999                      49
   210   1      9.7999999999999972      64.679999999999993      47.039999999999999
   211   1      7.8399999999999972      62.719999999999999      50.959999999999994
   212   1      7.8399999999999972      64.679999999999993      52.919999999999995
   213   1      9.7999999999999972      62.719999999999999      52.919999999999995
   214   1      9.7999999999999972      64.679999999999993      50.959999999999994
   215   1      7.8399999999999972      62.719999999999999      54.879999999999995
   216   1      7.8399999999999972      64.679999999999993      56.839999999999996
   217   1      9.7999999999999972      62.719999999999999      56.839999999999996
   218   1      9.7999999999999972      64.679999999999993      54.879999999999995
   219   1      7.8399999999999972      62.719999999999999       58.79999999999999
   220   1      7.8399999999999972      64.679999999999993      60.759999999999998
   221   1      9.7999999999999972      62.719999999999999      60.759999999999998
   222   1      9.7999999999999972      64.679999999999993       58.79999999999999
   223   1      7.8399999999999972      62.719999999999999      62.719999999999999
   224   1      7.8399999999999972      64.679999999999993      64.679999999999993
   225   1      9.7999999999999972      62.719999999999999      64.679999999999993
   226   1      9.7999999999999972      64.679999999999993      62.719999999999999
   227   1      9.7999999999999972      62.719999999999999      68.599999999999994
   228   1      9.7999999999999972      64.679999999999993      66.640000000000001
   229   1      9.7999999999999972      66.640000000000001      41.159999999999997
   230   1      9.7999999999999972      66.640000000000001      45.079999999999998
   231   1      9.7999999999999972      68.599999999999994      43.119999999999997
   232   1      9.7999999999999972      66.640000000000001                      49
   233   1      9.7999999999999972      68.599999999999994      47.039999999999999
   234   1      9.7999999999999972      66.640000000000001      52.919999999999995
   235   1      9.7999999999999972      68.599999999999994      50.959999999999994
   236   1      9.7999999999999972      66.640000000000001      56.839999999999996
   237   1      9.7999999999999972      68.599999999999994      54.879999999999995
   238   1      9.7999999999999972      66.640000000000001      60.759999999999998
   239   1      9.7999999999999972      68.599999999999994       58.79999999999999
   240   1      9.7999999999999972      66.640000000000001      64.679999999999993
   241   1      9.7999999999999972      68.599999999999994      62.719999999999999
   242   1      9.7999999999999972      66.640000000000001      68.599999999999994
   243   1      9.7999999999999972      68.599999999999994      66.640000000000001
   244   1      13.719999999999999      37.240000000000002      39.199999999999996
   245   1      13.719999999999999      37.240000000000002      43.119999999999997
   246   1      13.719999999999999      37.240000000000002      47.039999999999999
   247   1      13.719999999999999      37.240000000000002      50.959999999999994
   248   1      13.719999999999999      37.240000000000002      54.879999999999995
   249   1      13.719999999999999      37.240000000000002       58.79999999999999
   250   1      13.719999999999999      37.240000000000002      62.719999999999999
   251   1      13.719999999999999      37.240000000000002      66.640000000000001
   252   1      13.719999999999999      37.240000000000002      70.560000000000002
   253   1      13.719999999999999      39.199999999999996      37.240000000000002
   254   1      11.759999999999998      39.199999999999996      39.199999999999996
   255   1      11.759999999999998      41.159999999999997      41.159999999999997
   256   1      13.719999999999999      39.199999999999996      41.159999999999997
   257   1      13.719999999999999      41.159999999999997      39.199999999999996
   258   1      11.759999999999998      39.199999999999996      43.119999999999997
   259   1      11.759999999999998      41.159999999999997      45.079999999999998
   260   1      13.719999999999999      39.199999999999996      45.079999999999998
   261   1      13.719999999999999      41.159999999999997      43.119999999999997
   262   1      11.759999999999998      39.199999999999996      47.039999999999999
   263   1      11.759999999999998      41.159999999999997                      49
   264   1      13.719999999999999      39.199999999999996                      49
   265   1      13.719999999999999      41.159999999999997      47.039999999999999
   266   1      11.759999999999998      39.199999999999996      50.959999999999994
   267   1      11.759999999999998      41.159999999999997      52.919999999999995
   268   1      13.719999999999999      39.199999999999996      52.919999999999995
   269   1      13.719999999999999      41.159999999999997      50.959999999999994
   270   1      11.759999999999998      39.199999999999996      54.879999999999995
   271   1      11.759999999999998      41.159999999999997      56.839999999999996
   272   1      13.719999999999999      39.199999999999996      56.839999999999996
   273   1      13.719999999999999      41.159999999999997      54.879999999999995
   274   1      11.759999999999998      39.199999999999996       58.79999999999999
   275   1      11.759999999999998      41.159999999999997      60.759999999999998
   276   1      13.719999999999999      39.199999999999996      60.759999999999998
   277   1      13.719999999999999      41.159999999999997       58.79999999999999
   278   1      11.759999999999998      39.199999999999996      62.719999999999999
   279   1      11.759999999999998      41.159999999999997      64.679999999999993
   280   1      13.719999999999999      39.199999999999996      64.679999999999993
   281   1      13.719999999999999      41.159999999999997      62.719999999999999
   282   1      11.759999999999998      39.199999999999996      66.640000000000001
   283   1      11.759999999999998      41.159999999999997      68.599999999999994
   284   1      13.719999999999999      39.199999999999996      68.599999999999994
   285   1      13.719999999999999      41.159999999999997      66.640000000000001
   286   1      11.759999999999998      39.199999999999996      70.560000000000002
   287   1      13.719999999999999      39.199999999999996      72.519999999999996
   288   1      13.719999999999999      41.159999999999997      70.560000000000002
   289   1      13.719999999999999      43.119999999999997      37.240000000000002
   290   1      11.759999999999998      43.119999999999997      39.199999999999996
   291   1      11.759999999999998      45.079999999999998      41.159999999999997
   292   1      13.719999999999999      43.119999999999997      41.159999999999997
   293   1      13.719999999999999      45.079999999999998      39.199999999999996
   294   1      11.759999999999998      43.119999999999997      43.119999999999997
   295   1      11.759999999999998      45.079999999999998      45.079999999999998
   296   1      13.719999999999999      43.119999999999997      45.079999999999998
   297   1      13.719999999999999      45.079999999999998      43.119999999999997
   298   1      11.759999999999998      43.119999999999997      47.039999999999999
   299   1      11.759999999999998      45.079999999999998                      49
   300   1      13.719999999999999      43.119999999999997                      49
   301   1      13.719999999999999      45.079999999999998      47.039999999999999
   302   1      11.759999999999998      43.119999999999997      50.959999999999994
   303   1      11.759999999999998      45.079999999999998      52.919999999999995
   304   1      13.719999999999999      43.119999999999997      52.919999999999995
   305   1      13.719999999999999      45.079999999999998      50.959999999999994
   306   1      11.759999999999998      43.119999999999997      54.879999999999995
   307   1      11.759999999999998      45.079999999999998      56.839999999999996
   308   1      13.719999999999999      43.119999999999997      56.839999999999996
   309   1      13.719999999999999      45.079999999999998      54.879999999999995
   310   1      11.759999999999998      43.119999999999997       58.79999999999999
   311   1      11.759999999999998      45.079999999999998      60.759999999999998
   312   1      13.719999999999999      43.119999999999997      60.759999999999998
   313   1      13.719999999999999      45.079999999999998       58.79999999999999
   314   1      11.759999999999998      43.119999999999997      62.719999999999999
   315   1      11.759999999999998      45.079999999999998      64.679999999999993
   316   1      13.719999999999999      43.119999999999997      64.679999999999993
   317   1      13.719999999999999      45.079999999999998      62.719999999999999
   318   1      11.759999999999998      43.119999999999997      66.640000000000001
   319   1      11.759999999999998      45.079999999999998      68.599999999999994
   320   1      13.719999999999999      43.119999999999997      68.599999999999994
   321   1      13.719999999999999      45.079999999999998      66.640000000000001
   322   1      11.759999999999998      43.119999999999997      70.560000000000002
   323   1      13.719999999999999      43.119999999999997      72.519999999999996
   324   1      13.719999999999999      45.079999999999998      70.560000000000002
   325   1      13.719999999999999      47.039999999999999      37.240000000000002
   326   1      11.759999999999998      47.039999999999999      39.199999999999996
   327   1      11.759999999999998                      49      41.159999999999997
   328   1      13.719999999999999      47.039999999999999      41.159999999999997
   329   1      13.719999999999999                      49      39.199999999999996
   330   1      11.759999999999998      47.039999999999999      43.119999999999997
   331   1      11.759999999999998                      49      45.079999999999998
   332   1      13.719999999999999      47.039999999999999      45.079999999999998
   333   1      13.719999999999999                      49      43.119999999999997
   334   1      11.759999999999998      47.039999999999999      47.039999999999999
   335   1      11.759999999999998                      49                      49
   336   1      13.719999999999999      47.039999999999999                      49
   337   1      13.719999999999999                      49      47.039999999999999
   338   1      11.759999999999998      47.039999999999999      50.959999999999994
   339   1      11.759999999999998                      49      52.919999999999995
   340   1      13.719999999999999      47.039999999999999      52.919999999999995
   341   1      13.719999999999999                      49      50.959999999999994
   342   1      11.759999999999998      47.039999999999999      54.879999999999995
   343   1      11.759999999999998                      49      56.839999999999996
   344   1      13.719999999999999      47.039999999999999      56.839999999999996
   345   1      13.719999999999999                      49      54.879999999999995
   346   1      11.759999999999998      47.039999999999999       58.79999999999999
   347   1      11.759999999999998                      49      60.759999999999998
   348   1      13.719999999999999      47.039999999999999      60.759999999999998
   349   1      13.719999999999999                      49       58.79999999999999
   350   1      11.759999999999998      47.039999999999999      62.719999999999999
   351   1      11.759999999999998                      49      64.679999999999993
   352   1      13.719999999999999      47.039999999999999      64.679999999999993
   353   1      13.719999999999999                      49      62.719999999999999
   354   1      11.759999999999998      47.039999999999999      66.640000000000001
   355   1      11.759999999999998                      49      68.599999999999994
   356   1      13.719999999999999      47.039999999999999      68.599999999999994
   357   1      13.719999999999999                      49      66.640000000000001
   358   1      11.759999999999998      47.039999999999999      70.560000000000002