model_files/PtCo/PtCo_30000/PtCo_321/PtCo_321_fcc_29817_temp.data (written by ASE) 

29817 	 atoms 
2  atom types
0.0                     102  xlo xhi
0.0                     102  ylo yhi
0.0                     102  zlo zhi


Atoms 

     1   1      1.8249999999999957      45.624999999999993      51.099999999999987
     2   1      101.99999999999999      49.274999999999999      49.274999999999999
     3   1      1.8249999999999957      47.449999999999996      49.274999999999999
     4   1      1.8249999999999957      49.274999999999999      47.449999999999996
     5   1      101.99999999999999      49.274999999999999       52.92499999999999
     6   1      1.8249999999999957      47.449999999999996       52.92499999999999
     7   1      1.8249999999999957      49.274999999999999      51.099999999999987
     8   1      1.8249999999999957      49.274999999999999      54.749999999999986
     9   1      1.8249999999999957      51.099999999999987      45.624999999999993
    10   1      101.99999999999999       52.92499999999999      49.274999999999999
    11   1      1.8249999999999957      51.099999999999987      49.274999999999999
    12   1      1.8249999999999957       52.92499999999999      47.449999999999996
    13   1      101.99999999999999      51.099999999999987      51.099999999999987
    14   1      101.99999999999999       52.92499999999999       52.92499999999999
    15   1      1.8249999999999957      51.099999999999987       52.92499999999999
    16   1      1.8249999999999957       52.92499999999999      51.099999999999987
    17   1      1.8249999999999957      51.099999999999987      56.574999999999989
    18   1      1.8249999999999957       52.92499999999999      54.749999999999986
    19   1      1.8249999999999957      54.749999999999986      49.274999999999999
    20   1      1.8249999999999957      54.749999999999986       52.92499999999999
    21   1      1.8249999999999957      56.574999999999989      51.099999999999987
    22   1      5.4749999999999943      41.974999999999994      47.449999999999996
    23   1      5.4749999999999943      41.974999999999994      51.099999999999987
    24   1      5.4749999999999943      41.974999999999994      54.749999999999986
    25   1      3.6499999999999915      45.624999999999993      45.624999999999993
    26   1      5.4749999999999943       43.79999999999999      45.624999999999993
    27   1      5.4749999999999943      45.624999999999993       43.79999999999999
    28   1      3.6499999999999915      45.624999999999993      49.274999999999999
    29   1      5.4749999999999943       43.79999999999999      49.274999999999999
    30   1      5.4749999999999943      45.624999999999993      47.449999999999996
    31   1      3.6499999999999915       43.79999999999999      51.099999999999987
    32   1      3.6499999999999915      45.624999999999993       52.92499999999999
    33   1      5.4749999999999943       43.79999999999999       52.92499999999999
    34   1      5.4749999999999943      45.624999999999993      51.099999999999987
    35   1      3.6499999999999915      45.624999999999993      56.574999999999989
    36   1      5.4749999999999943       43.79999999999999      56.574999999999989
    37   1      5.4749999999999943      45.624999999999993      54.749999999999986
    38   1      5.4749999999999943      45.624999999999993      58.399999999999984
    39   1      5.4749999999999943      47.449999999999996      41.974999999999994
    40   1      3.6499999999999915      49.274999999999999      45.624999999999993
    41   1      5.4749999999999943      47.449999999999996      45.624999999999993
    42   1      5.4749999999999943      49.274999999999999       43.79999999999999
    43   1      3.6499999999999915      47.449999999999996      47.449999999999996
    44   1      3.6499999999999915      49.274999999999999      49.274999999999999
    45   1      5.4749999999999943      47.449999999999996      49.274999999999999
    46   1      5.4749999999999943      49.274999999999999      47.449999999999996
    47   1      3.6499999999999915      47.449999999999996      51.099999999999987
    48   1      3.6499999999999915      49.274999999999999       52.92499999999999
    49   1      5.4749999999999943      47.449999999999996       52.92499999999999
    50   1      5.4749999999999943      49.274999999999999      51.099999999999987
    51   1      3.6499999999999915      47.449999999999996      54.749999999999986
    52   1      3.6499999999999915      49.274999999999999      56.574999999999989
    53   1      5.4749999999999943      47.449999999999996      56.574999999999989
    54   1      5.4749999999999943      49.274999999999999      54.749999999999986
    55   1      5.4749999999999943      47.449999999999996      60.224999999999987
    56   1      5.4749999999999943      49.274999999999999      58.399999999999984
    57   1      5.4749999999999943      51.099999999999987      41.974999999999994
    58   1      3.6499999999999915      51.099999999999987       43.79999999999999
    59   1      3.6499999999999915       52.92499999999999      45.624999999999993
    60   1      5.4749999999999943      51.099999999999987      45.624999999999993
    61   1      5.4749999999999943       52.92499999999999       43.79999999999999
    62   1      3.6499999999999915      51.099999999999987      47.449999999999996
    63   1      3.6499999999999915       52.92499999999999      49.274999999999999
    64   1      5.4749999999999943      51.099999999999987      49.274999999999999
    65   1      5.4749999999999943       52.92499999999999      47.449999999999996
    66   1      3.6499999999999915      51.099999999999987      51.099999999999987
    67   1      3.6499999999999915       52.92499999999999       52.92499999999999
    68   1      5.4749999999999943      51.099999999999987       52.92499999999999
    69   1      5.4749999999999943       52.92499999999999      51.099999999999987
    70   1      3.6499999999999915      51.099999999999987      54.749999999999986
    71   1      3.6499999999999915       52.92499999999999      56.574999999999989
    72   1      5.4749999999999943      51.099999999999987      56.574999999999989
    73   1      5.4749999999999943       52.92499999999999      54.749999999999986
    74   1      3.6499999999999915      51.099999999999987      58.399999999999984
    75   1      5.4749999999999943      51.099999999999987      60.224999999999987
    76   1      5.4749999999999943       52.92499999999999      58.399999999999984
    77   1      5.4749999999999943      54.749999999999986      41.974999999999994
    78   1      3.6499999999999915      56.574999999999989      45.624999999999993
    79   1      5.4749999999999943      54.749999999999986      45.624999999999993
    80   1      5.4749999999999943      56.574999999999989       43.79999999999999
    81   1      3.6499999999999915      54.749999999999986      47.449999999999996
    82   1      3.6499999999999915      56.574999999999989      49.274999999999999
    83   1      5.4749999999999943      54.749999999999986      49.274999999999999
    84   1      5.4749999999999943      56.574999999999989      47.449999999999996
    85   1      3.6499999999999915      54.749999999999986      51.099999999999987
    86   1      3.6499999999999915      56.574999999999989       52.92499999999999
    87   1      5.4749999999999943      54.749999999999986       52.92499999999999
    88   1      5.4749999999999943      56.574999999999989      51.099999999999987
    89   1      3.6499999999999915      54.749999999999986      54.749999999999986
    90   1      3.6499999999999915      56.574999999999989      56.574999999999989
    91   1      5.4749999999999943      54.749999999999986      56.574999999999989
    92   1      5.4749999999999943      56.574999999999989      54.749999999999986
    93   1      5.4749999999999943      54.749999999999986      60.224999999999987
    94   1      5.4749999999999943      56.574999999999989      58.399999999999984
    95   1      5.4749999999999943      58.399999999999984      45.624999999999993
    96   1      5.4749999999999943      58.399999999999984      49.274999999999999
    97   1      5.4749999999999943      60.224999999999987      47.449999999999996
    98   1      3.6499999999999915      58.399999999999984      51.099999999999987
    99   1      5.4749999999999943      58.399999999999984       52.92499999999999
   100   1      5.4749999999999943      60.224999999999987      51.099999999999987
   101   1      5.4749999999999943      58.399999999999984      56.574999999999989
   102   1      5.4749999999999943      60.224999999999987      54.749999999999986
   103   1      9.1249999999999929      34.674999999999997      51.099999999999987
   104   1      9.1249999999999929      38.324999999999996       43.79999999999999
   105   1      7.2999999999999972      38.324999999999996      49.274999999999999
   106   1      9.1249999999999929      36.499999999999993      49.274999999999999
   107   1      9.1249999999999929      38.324999999999996      47.449999999999996
   108   1      7.2999999999999972      38.324999999999996       52.92499999999999
   109   1      9.1249999999999929      36.499999999999993       52.92499999999999
   110   1      9.1249999999999929      38.324999999999996      51.099999999999987
   111   1      9.1249999999999929      38.324999999999996      54.749999999999986
   112   1      9.1249999999999929      38.324999999999996      58.399999999999984
   113   1      7.2999999999999972      41.974999999999994      41.974999999999994
   114   1      9.1249999999999929      40.149999999999991      41.974999999999994
   115   1      9.1249999999999929      41.974999999999994      40.149999999999991
   116   1      7.2999999999999972      41.974999999999994      45.624999999999993
   117   1      9.1249999999999929      40.149999999999991      45.624999999999993
   118   1      9.1249999999999929      41.974999999999994       43.79999999999999
   119   1      7.2999999999999972      40.149999999999991      47.449999999999996
   120   1      7.2999999999999972      41.974999999999994      49.274999999999999
   121   1      9.1249999999999929      40.149999999999991      49.274999999999999
   122   1      9.1249999999999929      41.974999999999994      47.449999999999996
   123   1      7.2999999999999972      40.149999999999991      51.099999999999987
   124   1      7.2999999999999972      41.974999999999994       52.92499999999999
   125   1      9.1249999999999929      40.149999999999991       52.92499999999999
   126   1      9.1249999999999929      41.974999999999994      51.099999999999987
   127   1      7.2999999999999972      40.149999999999991      54.749999999999986
   128   1      7.2999999999999972      41.974999999999994      56.574999999999989
   129   1      9.1249999999999929      40.149999999999991      56.574999999999989
   130   1      9.1249999999999929      41.974999999999994      54.749999999999986
   131   1      7.2999999999999972      41.974999999999994      60.224999999999987
   132   1      9.1249999999999929      40.149999999999991      60.224999999999987
   133   1      9.1249999999999929      41.974999999999994      58.399999999999984
   134   1      9.1249999999999929      41.974999999999994      62.049999999999997
   135   1      9.1249999999999929       43.79999999999999      38.324999999999996
   136   1      7.2999999999999972      45.624999999999993      41.974999999999994
   137   1      9.1249999999999929       43.79999999999999      41.974999999999994
   138   1      9.1249999999999929      45.624999999999993      40.149999999999991
   139   1      7.2999999999999972       43.79999999999999       43.79999999999999
   140   1      7.2999999999999972      45.624999999999993      45.624999999999993
   141   1      9.1249999999999929       43.79999999999999      45.624999999999993
   142   1      9.1249999999999929      45.624999999999993       43.79999999999999
   143   1      7.2999999999999972       43.79999999999999      47.449999999999996
   144   1      7.2999999999999972      45.624999999999993      49.274999999999999
   145   1      9.1249999999999929       43.79999999999999      49.274999999999999
   146   1      9.1249999999999929      45.624999999999993      47.449999999999996
   147   1      7.2999999999999972       43.79999999999999      51.099999999999987
   148   1      7.2999999999999972      45.624999999999993       52.92499999999999
   149   1      9.1249999999999929       43.79999999999999       52.92499999999999
   150   1      9.1249999999999929      45.624999999999993      51.099999999999987
   151   1      7.2999999999999972       43.79999999999999      54.749999999999986
   152   1      7.2999999999999972      45.624999999999993      56.574999999999989
   153   1      9.1249999999999929       43.79999999999999      56.574999999999989
   154   1      9.1249999999999929      45.624999999999993      54.749999999999986
   155   1      7.2999999999999972       43.79999999999999      58.399999999999984
   156   1      7.2999999999999972      45.624999999999993      60.224999999999987
   157   1      9.1249999999999929       43.79999999999999      60.224999999999987
   158   1      9.1249999999999929      45.624999999999993      58.399999999999984
   159   1      9.1249999999999929       43.79999999999999                  63.875
   160   1      9.1249999999999929      45.624999999999993      62.049999999999997
   161   1      7.2999999999999972      49.274999999999999      38.324999999999996
   162   1      9.1249999999999929      47.449999999999996      38.324999999999996
   163   1      9.1249999999999929      49.274999999999999      36.499999999999993
   164   1      7.2999999999999972      47.449999999999996      40.149999999999991
   165   1      7.2999999999999972      49.274999999999999      41.974999999999994
   166   1      9.1249999999999929      47.449999999999996      41.974999999999994
   167   1      9.1249999999999929      49.274999999999999      40.149999999999991
   168   1      7.2999999999999972      47.449999999999996       43.79999999999999
   169   1      7.2999999999999972      49.274999999999999      45.624999999999993
   170   1      9.1249999999999929      47.449999999999996      45.624999999999993
   171   1      9.1249999999999929      49.274999999999999       43.79999999999999
   172   1      7.2999999999999972      47.449999999999996      47.449999999999996
   173   1      7.2999999999999972      49.274999999999999      49.274999999999999
   174   1      9.1249999999999929      47.449999999999996      49.274999999999999
   175   1      9.1249999999999929      49.274999999999999      47.449999999999996
   176   1      7.2999999999999972      47.449999999999996      51.099999999999987
   177   1      7.2999999999999972      49.274999999999999       52.92499999999999
   178   1      9.1249999999999929      47.449999999999996       52.92499999999999
   179   1      9.1249999999999929      49.274999999999999      51.099999999999987
   180   1      7.2999999999999972      47.449999999999996      54.749999999999986
   181   1      7.2999999999999972      49.274999999999999      56.574999999999989
   182   1      9.1249999999999929      47.449999999999996      56.574999999999989
   183   1      9.1249999999999929      49.274999999999999      54.749999999999986
   184   1      7.2999999999999972      47.449999999999996      58.399999999999984
   185   1      7.2999999999999972      49.274999999999999      60.224999999999987
   186   1      9.1249999999999929      47.449999999999996      60.224999999999987
   187   1      9.1249999999999929      49.274999999999999      58.399999999999984
   188   1      7.2999999999999972      47.449999999999996      62.049999999999997
   189   1      7.2999999999999972      49.274999999999999                  63.875
   190   1      9.1249999999999929      47.449999999999996                  63.875
   191   1      9.1249999999999929      49.274999999999999      62.049999999999997
   192   1      9.1249999999999929      49.274999999999999      65.699999999999989
   193   1      9.1249999999999929      51.099999999999987      34.674999999999997
   194   1      7.2999999999999972       52.92499999999999      38.324999999999996
   195   1      9.1249999999999929      51.099999999999987      38.324999999999996
   196   1      9.1249999999999929       52.92499999999999      36.499999999999993
   197   1      7.2999999999999972      51.099999999999987      40.149999999999991
   198   1      7.2999999999999972       52.92499999999999      41.974999999999994
   199   1      9.1249999999999929      51.099999999999987      41.974999999999994
   200   1      9.1249999999999929       52.92499999999999      40.149999999999991
   201   1      7.2999999999999972      51.099999999999987       43.79999999999999
   202   1      7.2999999999999972       52.92499999999999      45.624999999999993
   203   1      9.1249999999999929      51.099999999999987      45.624999999999993
   204   1      9.1249999999999929       52.92499999999999       43.79999999999999
   205   1      7.2999999999999972      51.099999999999987      47.449999999999996
   206   1      7.2999999999999972       52.92499999999999      49.274999999999999
   207   1      9.1249999999999929      51.099999999999987      49.274999999999999
   208   1      9.1249999999999929       52.92499999999999      47.449999999999996
   209   1      7.2999999999999972      51.099999999999987      51.099999999999987
   210   1      7.2999999999999972       52.92499999999999       52.92499999999999
   211   1      9.1249999999999929      51.099999999999987       52.92499999999999
   212   1      9.1249999999999929       52.92499999999999      51.099999999999987
   213   1      7.2999999999999972      51.099999999999987      54.749999999999986
   214   1      7.2999999999999972       52.92499999999999      56.574999999999989
   215   1      9.1249999999999929      51.099999999999987      56.574999999999989
   216   1      9.1249999999999929       52.92499999999999      54.749999999999986
   217   1      7.2999999999999972      51.099999999999987      58.399999999999984
   218   1      7.2999999999999972       52.92499999999999      60.224999999999987
   219   1      9.1249999999999929      51.099999999999987      60.224999999999987
   220   1      9.1249999999999929       52.92499999999999      58.399999999999984
   221   1      7.2999999999999972      51.099999999999987      62.049999999999997
   222   1      7.2999999999999972       52.92499999999999                  63.875
   223   1      9.1249999999999929      51.099999999999987                  63.875
   224   1      9.1249999999999929       52.92499999999999      62.049999999999997
   225   1      9.1249999999999929      51.099999999999987      67.524999999999991
   226   1      9.1249999999999929       52.92499999999999      65.699999999999989
   227   1      9.1249999999999929      54.749999999999986      38.324999999999996
   228   1      7.2999999999999972      54.749999999999986      40.149999999999991
   229   1      7.2999999999999972      56.574999999999989      41.974999999999994
   230   1      9.1249999999999929      54.749999999999986      41.974999999999994
   231   1      9.1249999999999929      56.574999999999989      40.149999999999991
   232   1      7.2999999999999972      54.749999999999986       43.79999999999999
   233   1      7.2999999999999972      56.574999999999989      45.624999999999993
   234   1      9.1249999999999929      54.749999999999986      45.624999999999993
   235   1      9.1249999999999929      56.574999999999989       43.79999999999999
   236   1      7.2999999999999972      54.749999999999986      47.449999999999996
   237   1      7.2999999999999972      56.574999999999989      49.274999999999999
   238   1      9.1249999999999929      54.749999999999986      49.274999999999999
   239   1      9.1249999999999929      56.574999999999989      47.449999999999996
   240   1      7.2999999999999972      54.749999999999986      51.099999999999987
   241   1      7.2999999999999972      56.574999999999989       52.92499999999999
   242   1      9.1249999999999929      54.749999999999986       52.92499999999999
   243   1      9.1249999999999929      56.574999999999989      51.099999999999987
   244   1      7.2999999999999972      54.749999999999986      54.749999999999986
   245   1      7.2999999999999972      56.574999999999989      56.574999999999989
   246   1      9.1249999999999929      54.749999999999986      56.574999999999989
   247   1      9.1249999999999929      56.574999999999989      54.749999999999986
   248   1      7.2999999999999972      54.749999999999986      58.399999999999984
   249   1      7.2999999999999972      56.574999999999989      60.224999999999987
   250   1      9.1249999999999929      54.749999999999986      60.224999999999987
   251   1      9.1249999999999929      56.574999999999989      58.399999999999984
   252   1      7.2999999999999972      54.749999999999986      62.049999999999997
   253   1      9.1249999999999929      54.749999999999986                  63.875
   254   1      9.1249999999999929      56.574999999999989      62.049999999999997
   255   1      9.1249999999999929      58.399999999999984      38.324999999999996
   256   1      7.2999999999999972      60.224999999999987      41.974999999999994
   257   1      9.1249999999999929      58.399999999999984      41.974999999999994
   258   1      9.1249999999999929      60.224999999999987      40.149999999999991
   259   1      7.2999999999999972      58.399999999999984       43.79999999999999
   260   1      7.2999999999999972      60.224999999999987      45.624999999999993
   261   1      9.1249999999999929      58.399999999999984      45.624999999999993
   262   1      9.1249999999999929      60.224999999999987       43.79999999999999
   263   1      7.2999999999999972      58.399999999999984      47.449999999999996
   264   1      7.2999999999999972      60.224999999999987      49.274999999999999
   265   1      9.1249999999999929      58.399999999999984      49.274999999999999
   266   1      9.1249999999999929      60.224999999999987      47.449999999999996
   267   1      7.2999999999999972      58.399999999999984      51.099999999999987
   268   1      7.2999999999999972      60.224999999999987       52.92499999999999
   269   1      9.1249999999999929      58.399999999999984       52.92499999999999
   270   1      9.1249999999999929      60.224999999999987      51.099999999999987
   271   1      7.2999999999999972      58.399999999999984      54.749999999999986
   272   1      7.2999999999999972      60.224999999999987      56.574999999999989
   273   1      9.1249999999999929      58.399999999999984      56.574999999999989
   274   1      9.1249999999999929      60.224999999999987      54.749999999999986
   275   1      7.2999999999999972      58.399999999999984      58.399999999999984
   276   1      7.2999999999999972      60.224999999999987      60.224999999999987
   277   1      9.1249999999999929      58.399999999999984      60.224999999999987
   278   1      9.1249999999999929      60.224999999999987      58.399999999999984
   279   1      9.1249999999999929      58.399999999999984                  63.875
   280   1      9.1249999999999929      60.224999999999987      62.049999999999997
   281   1      9.1249999999999929      62.049999999999997      41.974999999999994
   282   1      9.1249999999999929      62.049999999999997      45.624999999999993
   283   1      9.1249999999999929                  63.875       43.79999999999999
   284   1      7.2999999999999972      62.049999999999997      47.449999999999996
   285   1      7.2999999999999972                  63.875      49.274999999999999
   286   1      9.1249999999999929      62.049999999999997      49.274999999999999
   287   1      9.1249999999999929                  63.875      47.449999999999996
   288   1      7.2999999999999972      62.049999999999997      51.099999999999987
   289   1      7.2999999999999972                  63.875       52.92499999999999
   290   1      9.1249999999999929      62.049999999999997       52.92499999999999
   291   1      9.1249999999999929                  63.875      51.099999999999987
   292   1      7.2999999999999972      62.049999999999997      54.749999999999986
   293   1      9.1249999999999929      62.049999999999997      56.574999999999989
   294   1      9.1249999999999929                  63.875      54.749999999999986
   295   1      9.1249999999999929      62.049999999999997      60.224999999999987
   296   1      9.1249999999999929                  63.875      58.399999999999984
   297   1      9.1249999999999929      65.699999999999989      49.274999999999999
   298   1      9.1249999999999929      65.699999999999989       52.92499999999999
   299   1      9.1249999999999929      67.524999999999991      51.099999999999987
   300   1      12.774999999999991      31.024999999999999      47.449999999999996
   301   1      12.774999999999991      31.024999999999999      51.099999999999987
   302   1      12.774999999999991      31.024999999999999      54.749999999999986
   303   1      12.774999999999991      34.674999999999997      40.149999999999991
   304   1      10.949999999999996      34.674999999999997      45.624999999999993
   305   1      12.774999999999991      32.849999999999994      45.624999999999993
   306   1      12.774999999999991      34.674999999999997       43.79999999999999
   307   1      10.949999999999996      34.674999999999997      49.274999999999999
   308   1      12.774999999999991      32.849999999999994      49.274999999999999
   309   1      12.774999999999991      34.674999999999997      47.449999999999996
   310   1      10.949999999999996      32.849999999999994      51.099999999999987
   311   1      10.949999999999996      34.674999999999997       52.92499999999999
   312   1      12.774999999999991      32.849999999999994       52.92499999999999
   313   1      12.774999999999991      34.674999999999997      51.099999999999987
   314   1      10.949999999999996      34.674999999999997      56.574999999999989
   315   1      12.774999999999991      32.849999999999994      56.574999999999989
   316   1      12.774999999999991      34.674999999999997      54.749999999999986
   317   1      12.774999999999991      34.674999999999997      58.399999999999984
   318   1      12.774999999999991      34.674999999999997      62.049999999999997
   319   1      10.949999999999996      38.324999999999996      38.324999999999996
   320   1      12.774999999999991      36.499999999999993      38.324999999999996
   321   1      12.774999999999991      38.324999999999996      36.499999999999993
   322   1      10.949999999999996      38.324999999999996      41.974999999999994
   323   1      12.774999999999991      36.499999999999993      41.974999999999994
   324   1      12.774999999999991      38.324999999999996      40.149999999999991
   325   1      10.949999999999996      36.499999999999993       43.79999999999999
   326   1      10.949999999999996      38.324999999999996      45.624999999999993
   327   1      12.774999999999991      36.499999999999993      45.624999999999993
   328   1      12.774999999999991      38.324999999999996       43.79999999999999
   329   1      10.949999999999996      36.499999999999993      47.449999999999996
   330   1      10.949999999999996      38.324999999999996      49.274999999999999
   331   1      12.774999999999991      36.499999999999993      49.274999999999999
   332   1      12.774999999999991      38.324999999999996      47.449999999999996
   333   1      10.949999999999996      36.499999999999993      51.099999999999987
   334   1      10.949999999999996      38.324999999999996       52.92499999999999
   335   1      12.774999999999991      36.499999999999993       52.92499999999999
   336   1      12.774999999999991      38.324999999999996      51.099999999999987
   337   1      10.949999999999996      36.499999999999993      54.749999999999986
   338   1      10.949999999999996      38.324999999999996      56.574999999999989
   339   1      12.774999999999991      36.499999999999993      56.574999999999989
   340   1      12.774999999999991      38.324999999999996      54.749999999999986
   341   1      10.949999999999996      36.499999999999993      58.399999999999984
   342   1      10.949999999999996      38.324999999999996      60.224999999999987
   343   1      12.774999999999991      36.499999999999993      60.224999999999987
   344   1      12.774999999999991      38.324999999999996      58.399999999999984
   345   1      10.949999999999996      38.324999999999996                  63.875
   346   1      12.774999999999991      36.499999999999993                  63.875
   347   1      12.774999999999991      38.324999999999996      62.049999999999997
   348   1      12.774999999999991      38.324999999999996      65.699999999999989
   349   1      12.774999999999991      40.149999999999991      34.674999999999997
   350   1      10.949999999999996      41.974999999999994      38.324999999999996
   351   1      12.774999999999991      40.149999999999991      38.324999999999996
   352   1      12.774999999999991      41.974999999999994      36.499999999999993
   353   1      10.949999999999996      40.149999999999991      40.149999999999991
   354   1      10.949999999999996      41.974999999999994      41.974999999999994
   355   1      12.774999999999991      40.149999999999991      41.974999999999994
   356   1      12.774999999999991      41.974999999999994      40.149999999999991
   357   1      10.949999999999996      40.149999999999991       43.79999999999999
   358   1      10.949999999999996      41.974999999999994      45.624999999999993