model_files/PtAu/PtAu_30000/PtAu_533/PtAu_533_fcc_30085_temp.data (written by ASE) 

30085 	 atoms 
2  atom types
0.0                     119  xlo xhi
0.0                     119  ylo yhi
0.0                     119  zlo zhi


Atoms 

     1   1                       0      56.602000000000004                 58.6235
     2   1                       0                 58.6235      56.602000000000004
     3   1                       0                 58.6235      60.644999999999996
     4   1                       0      60.644999999999996                 58.6235
     5   1      4.0429999999999993      52.559000000000005                 58.6235
     6   1      2.0214999999999961      56.602000000000004      56.602000000000004
     7   1      4.0429999999999993      54.580499999999994      56.602000000000004
     8   1      4.0429999999999993      56.602000000000004      54.580499999999994
     9   1      2.0214999999999961      54.580499999999994                 58.6235
    10   1      2.0214999999999961      56.602000000000004      60.644999999999996
    11   1      4.0429999999999993      54.580499999999994      60.644999999999996
    12   1      4.0429999999999993      56.602000000000004                 58.6235
    13   1      4.0429999999999993      56.602000000000004      62.666499999999999
    14   1      4.0429999999999993                 58.6235      52.559000000000005
    15   1      2.0214999999999961                 58.6235      54.580499999999994
    16   1      2.0214999999999961      60.644999999999996      56.602000000000004
    17   1      4.0429999999999993                 58.6235      56.602000000000004
    18   1      4.0429999999999993      60.644999999999996      54.580499999999994
    19   1      2.0214999999999961                 58.6235                 58.6235
    20   1      2.0214999999999961      60.644999999999996      60.644999999999996
    21   1      4.0429999999999993                 58.6235      60.644999999999996
    22   1      4.0429999999999993      60.644999999999996                 58.6235
    23   1      2.0214999999999961                 58.6235      62.666499999999999
    24   1      4.0429999999999993                 58.6235      64.688000000000002
    25   1      4.0429999999999993      60.644999999999996      62.666499999999999
    26   1      4.0429999999999993      62.666499999999999      56.602000000000004
    27   1      2.0214999999999961      62.666499999999999                 58.6235
    28   1      4.0429999999999993      62.666499999999999      60.644999999999996
    29   1      4.0429999999999993      64.688000000000002                 58.6235
    30   1      8.0859999999999985      44.472999999999999                 58.6235
    31   1      6.0644999999999953      48.515999999999998      56.602000000000004
    32   1      8.0859999999999985      46.494500000000002      56.602000000000004
    33   1      8.0859999999999985      48.515999999999998      54.580499999999994
    34   1      6.0644999999999953      46.494500000000002                 58.6235
    35   1      6.0644999999999953      48.515999999999998      60.644999999999996
    36   1      8.0859999999999985      46.494500000000002      60.644999999999996
    37   1      8.0859999999999985      48.515999999999998                 58.6235
    38   1      8.0859999999999985      48.515999999999998      62.666499999999999
    39   1      6.0644999999999953      52.559000000000005      52.559000000000005
    40   1      8.0859999999999985      50.537500000000001      52.559000000000005
    41   1      8.0859999999999985      52.559000000000005      50.537500000000001
    42   1      6.0644999999999953      50.537500000000001      54.580499999999994
    43   1      6.0644999999999953      52.559000000000005      56.602000000000004
    44   1      8.0859999999999985      50.537500000000001      56.602000000000004
    45   1      8.0859999999999985      52.559000000000005      54.580499999999994
    46   1      6.0644999999999953      50.537500000000001                 58.6235
    47   1      6.0644999999999953      52.559000000000005      60.644999999999996
    48   1      8.0859999999999985      50.537500000000001      60.644999999999996
    49   1      8.0859999999999985      52.559000000000005                 58.6235
    50   1      6.0644999999999953      50.537500000000001      62.666499999999999
    51   1      6.0644999999999953      52.559000000000005      64.688000000000002
    52   1      8.0859999999999985      50.537500000000001      64.688000000000002
    53   1      8.0859999999999985      52.559000000000005      62.666499999999999
    54   1      8.0859999999999985      52.559000000000005      66.709500000000006
    55   1      6.0644999999999953      56.602000000000004      48.515999999999998
    56   1      8.0859999999999985      54.580499999999994      48.515999999999998
    57   1      8.0859999999999985      56.602000000000004      46.494500000000002
    58   1      6.0644999999999953      54.580499999999994      50.537500000000001
    59   1      6.0644999999999953      56.602000000000004      52.559000000000005
    60   1      8.0859999999999985      54.580499999999994      52.559000000000005
    61   1      8.0859999999999985      56.602000000000004      50.537500000000001
    62   1      6.0644999999999953      54.580499999999994      54.580499999999994
    63   1      6.0644999999999953      56.602000000000004      56.602000000000004
    64   1      8.0859999999999985      54.580499999999994      56.602000000000004
    65   1      8.0859999999999985      56.602000000000004      54.580499999999994
    66   1      6.0644999999999953      54.580499999999994                 58.6235
    67   1      6.0644999999999953      56.602000000000004      60.644999999999996
    68   1      8.0859999999999985      54.580499999999994      60.644999999999996
    69   1      8.0859999999999985      56.602000000000004                 58.6235
    70   1      6.0644999999999953      54.580499999999994      62.666499999999999
    71   1      6.0644999999999953      56.602000000000004      64.688000000000002
    72   1      8.0859999999999985      54.580499999999994      64.688000000000002
    73   1      8.0859999999999985      56.602000000000004      62.666499999999999
    74   1      6.0644999999999953      54.580499999999994      66.709500000000006
    75   1      6.0644999999999953      56.602000000000004      68.731000000000009
    76   1      8.0859999999999985      54.580499999999994      68.731000000000009
    77   1      8.0859999999999985      56.602000000000004      66.709500000000006
    78   1      8.0859999999999985      56.602000000000004      70.752499999999998
    79   1      8.0859999999999985                 58.6235      44.472999999999999
    80   1      6.0644999999999953                 58.6235      46.494500000000002
    81   1      6.0644999999999953      60.644999999999996      48.515999999999998
    82   1      8.0859999999999985                 58.6235      48.515999999999998
    83   1      8.0859999999999985      60.644999999999996      46.494500000000002
    84   1      6.0644999999999953                 58.6235      50.537500000000001
    85   1      6.0644999999999953      60.644999999999996      52.559000000000005
    86   1      8.0859999999999985                 58.6235      52.559000000000005
    87   1      8.0859999999999985      60.644999999999996      50.537500000000001
    88   1      6.0644999999999953                 58.6235      54.580499999999994
    89   1      6.0644999999999953      60.644999999999996      56.602000000000004
    90   1      8.0859999999999985                 58.6235      56.602000000000004
    91   1      8.0859999999999985      60.644999999999996      54.580499999999994
    92   1      6.0644999999999953                 58.6235                 58.6235
    93   1      6.0644999999999953      60.644999999999996      60.644999999999996
    94   1      8.0859999999999985                 58.6235      60.644999999999996
    95   1      8.0859999999999985      60.644999999999996                 58.6235
    96   1      6.0644999999999953                 58.6235      62.666499999999999
    97   1      6.0644999999999953      60.644999999999996      64.688000000000002
    98   1      8.0859999999999985                 58.6235      64.688000000000002
    99   1      8.0859999999999985      60.644999999999996      62.666499999999999
   100   1      6.0644999999999953                 58.6235      66.709500000000006
   101   1      6.0644999999999953      60.644999999999996      68.731000000000009
   102   1      8.0859999999999985                 58.6235      68.731000000000009
   103   1      8.0859999999999985      60.644999999999996      66.709500000000006
   104   1      6.0644999999999953                 58.6235      70.752499999999998
   105   1      8.0859999999999985                 58.6235      72.774000000000001
   106   1      8.0859999999999985      60.644999999999996      70.752499999999998
   107   1      8.0859999999999985      62.666499999999999      48.515999999999998
   108   1      6.0644999999999953      62.666499999999999      50.537500000000001
   109   1      6.0644999999999953      64.688000000000002      52.559000000000005
   110   1      8.0859999999999985      62.666499999999999      52.559000000000005
   111   1      8.0859999999999985      64.688000000000002      50.537500000000001
   112   1      6.0644999999999953      62.666499999999999      54.580499999999994
   113   1      6.0644999999999953      64.688000000000002      56.602000000000004
   114   1      8.0859999999999985      62.666499999999999      56.602000000000004
   115   1      8.0859999999999985      64.688000000000002      54.580499999999994
   116   1      6.0644999999999953      62.666499999999999                 58.6235
   117   1      6.0644999999999953      64.688000000000002      60.644999999999996
   118   1      8.0859999999999985      62.666499999999999      60.644999999999996
   119   1      8.0859999999999985      64.688000000000002                 58.6235
   120   1      6.0644999999999953      62.666499999999999      62.666499999999999
   121   1      6.0644999999999953      64.688000000000002      64.688000000000002
   122   1      8.0859999999999985      62.666499999999999      64.688000000000002
   123   1      8.0859999999999985      64.688000000000002      62.666499999999999
   124   1      6.0644999999999953      62.666499999999999      66.709500000000006
   125   1      8.0859999999999985      62.666499999999999      68.731000000000009
   126   1      8.0859999999999985      64.688000000000002      66.709500000000006
   127   1      8.0859999999999985      66.709500000000006      52.559000000000005
   128   1      6.0644999999999953      66.709500000000006      54.580499999999994
   129   1      6.0644999999999953      68.731000000000009      56.602000000000004
   130   1      8.0859999999999985      66.709500000000006      56.602000000000004
   131   1      8.0859999999999985      68.731000000000009      54.580499999999994
   132   1      6.0644999999999953      66.709500000000006                 58.6235
   133   1      6.0644999999999953      68.731000000000009      60.644999999999996
   134   1      8.0859999999999985      66.709500000000006      60.644999999999996
   135   1      8.0859999999999985      68.731000000000009                 58.6235
   136   1      6.0644999999999953      66.709500000000006      62.666499999999999
   137   1      8.0859999999999985      66.709500000000006      64.688000000000002
   138   1      8.0859999999999985      68.731000000000009      62.666499999999999
   139   1      8.0859999999999985      70.752499999999998      56.602000000000004
   140   1      6.0644999999999953      70.752499999999998                 58.6235
   141   1      8.0859999999999985      70.752499999999998      60.644999999999996
   142   1      8.0859999999999985      72.774000000000001                 58.6235
   143   1      12.128999999999996                  36.387                 58.6235
   144   1      12.128999999999996      38.408499999999997      56.602000000000004
   145   1      12.128999999999996                   40.43      54.580499999999994
   146   1      12.128999999999996      38.408499999999997      60.644999999999996
   147   1      12.128999999999996                   40.43                 58.6235
   148   1      12.128999999999996                   40.43      62.666499999999999
   149   1      12.128999999999996      42.451499999999989      52.559000000000005
   150   1      12.128999999999996      44.472999999999999      50.537500000000001
   151   1      10.107499999999995      44.472999999999999      56.602000000000004
   152   1      12.128999999999996      42.451499999999989      56.602000000000004
   153   1      12.128999999999996      44.472999999999999      54.580499999999994
   154   1      10.107499999999995      42.451499999999989                 58.6235
   155   1      10.107499999999995      44.472999999999999      60.644999999999996
   156   1      12.128999999999996      42.451499999999989      60.644999999999996
   157   1      12.128999999999996      44.472999999999999                 58.6235
   158   1      12.128999999999996      42.451499999999989      64.688000000000002
   159   1      12.128999999999996      44.472999999999999      62.666499999999999
   160   1      12.128999999999996      44.472999999999999      66.709500000000006
   161   1      12.128999999999996      46.494500000000002      48.515999999999998
   162   1      12.128999999999996      48.515999999999998      46.494500000000002
   163   1      10.107499999999995      48.515999999999998      52.559000000000005
   164   1      12.128999999999996      46.494500000000002      52.559000000000005
   165   1      12.128999999999996      48.515999999999998      50.537500000000001
   166   1      10.107499999999995      46.494500000000002      54.580499999999994
   167   1      10.107499999999995      48.515999999999998      56.602000000000004
   168   1      12.128999999999996      46.494500000000002      56.602000000000004
   169   1      12.128999999999996      48.515999999999998      54.580499999999994
   170   1      10.107499999999995      46.494500000000002                 58.6235
   171   1      10.107499999999995      48.515999999999998      60.644999999999996
   172   1      12.128999999999996      46.494500000000002      60.644999999999996
   173   1      12.128999999999996      48.515999999999998                 58.6235
   174   1      10.107499999999995      46.494500000000002      62.666499999999999
   175   1      10.107499999999995      48.515999999999998      64.688000000000002
   176   1      12.128999999999996      46.494500000000002      64.688000000000002
   177   1      12.128999999999996      48.515999999999998      62.666499999999999
   178   1      12.128999999999996      46.494500000000002      68.731000000000009
   179   1      12.128999999999996      48.515999999999998      66.709500000000006
   180   1      12.128999999999996      48.515999999999998      70.752499999999998
   181   1      12.128999999999996      50.537500000000001      44.472999999999999
   182   1      12.128999999999996      52.559000000000005      42.451499999999989
   183   1      10.107499999999995      52.559000000000005      48.515999999999998
   184   1      12.128999999999996      50.537500000000001      48.515999999999998
   185   1      12.128999999999996      52.559000000000005      46.494500000000002
   186   1      10.107499999999995      50.537500000000001      50.537500000000001
   187   1      10.107499999999995      52.559000000000005      52.559000000000005
   188   1      12.128999999999996      50.537500000000001      52.559000000000005
   189   1      12.128999999999996      52.559000000000005      50.537500000000001
   190   1      10.107499999999995      50.537500000000001      54.580499999999994
   191   1      10.107499999999995      52.559000000000005      56.602000000000004
   192   1      12.128999999999996      50.537500000000001      56.602000000000004
   193   1      12.128999999999996      52.559000000000005      54.580499999999994
   194   1      10.107499999999995      50.537500000000001                 58.6235
   195   1      10.107499999999995      52.559000000000005      60.644999999999996
   196   1      12.128999999999996      50.537500000000001      60.644999999999996
   197   1      12.128999999999996      52.559000000000005                 58.6235
   198   1      10.107499999999995      50.537500000000001      62.666499999999999
   199   1      10.107499999999995      52.559000000000005      64.688000000000002
   200   1      12.128999999999996      50.537500000000001      64.688000000000002
   201   1      12.128999999999996      52.559000000000005      62.666499999999999
   202   1      10.107499999999995      50.537500000000001      66.709500000000006
   203   1      10.107499999999995      52.559000000000005      68.731000000000009
   204   1      12.128999999999996      50.537500000000001      68.731000000000009
   205   1      12.128999999999996      52.559000000000005      66.709500000000006
   206   1      12.128999999999996      50.537500000000001      72.774000000000001
   207   1      12.128999999999996      52.559000000000005      70.752499999999998
   208   1      12.128999999999996      52.559000000000005      74.795500000000004
   209   1      12.128999999999996      54.580499999999994                   40.43
   210   1      12.128999999999996      56.602000000000004      38.408499999999997
   211   1      10.107499999999995      56.602000000000004      44.472999999999999
   212   1      12.128999999999996      54.580499999999994      44.472999999999999
   213   1      12.128999999999996      56.602000000000004      42.451499999999989
   214   1      10.107499999999995      54.580499999999994      46.494500000000002
   215   1      10.107499999999995      56.602000000000004      48.515999999999998
   216   1      12.128999999999996      54.580499999999994      48.515999999999998
   217   1      12.128999999999996      56.602000000000004      46.494500000000002
   218   1      10.107499999999995      54.580499999999994      50.537500000000001
   219   1      10.107499999999995      56.602000000000004      52.559000000000005
   220   1      12.128999999999996      54.580499999999994      52.559000000000005
   221   1      12.128999999999996      56.602000000000004      50.537500000000001
   222   1      10.107499999999995      54.580499999999994      54.580499999999994
   223   1      10.107499999999995      56.602000000000004      56.602000000000004
   224   1      12.128999999999996      54.580499999999994      56.602000000000004
   225   1      12.128999999999996      56.602000000000004      54.580499999999994
   226   1      10.107499999999995      54.580499999999994                 58.6235
   227   1      10.107499999999995      56.602000000000004      60.644999999999996
   228   1      12.128999999999996      54.580499999999994      60.644999999999996
   229   1      12.128999999999996      56.602000000000004                 58.6235
   230   1      10.107499999999995      54.580499999999994      62.666499999999999
   231   1      10.107499999999995      56.602000000000004      64.688000000000002
   232   1      12.128999999999996      54.580499999999994      64.688000000000002
   233   1      12.128999999999996      56.602000000000004      62.666499999999999
   234   1      10.107499999999995      54.580499999999994      66.709500000000006
   235   1      10.107499999999995      56.602000000000004      68.731000000000009
   236   1      12.128999999999996      54.580499999999994      68.731000000000009
   237   1      12.128999999999996      56.602000000000004      66.709500000000006
   238   1      10.107499999999995      54.580499999999994      70.752499999999998
   239   1      10.107499999999995      56.602000000000004      72.774000000000001
   240   1      12.128999999999996      54.580499999999994      72.774000000000001
   241   1      12.128999999999996      56.602000000000004      70.752499999999998
   242   1      12.128999999999996      54.580499999999994      76.817000000000007
   243   1      12.128999999999996      56.602000000000004      74.795500000000004
   244   1      12.128999999999996      56.602000000000004      78.838499999999982
   245   1      12.128999999999996                 58.6235                  36.387
   246   1      12.128999999999996                 58.6235                   40.43
   247   1      12.128999999999996      60.644999999999996      38.408499999999997
   248   1      10.107499999999995                 58.6235      42.451499999999989
   249   1      10.107499999999995      60.644999999999996      44.472999999999999
   250   1      12.128999999999996                 58.6235      44.472999999999999
   251   1      12.128999999999996      60.644999999999996      42.451499999999989
   252   1      10.107499999999995                 58.6235      46.494500000000002
   253   1      10.107499999999995      60.644999999999996      48.515999999999998
   254   1      12.128999999999996                 58.6235      48.515999999999998
   255   1      12.128999999999996      60.644999999999996      46.494500000000002
   256   1      10.107499999999995                 58.6235      50.537500000000001
   257   1      10.107499999999995      60.644999999999996      52.559000000000005
   258   1      12.128999999999996                 58.6235      52.559000000000005
   259   1      12.128999999999996      60.644999999999996      50.537500000000001
   260   1      10.107499999999995                 58.6235      54.580499999999994
   261   1      10.107499999999995      60.644999999999996      56.602000000000004
   262   1      12.128999999999996                 58.6235      56.602000000000004
   263   1      12.128999999999996      60.644999999999996      54.580499999999994
   264   1      10.107499999999995                 58.6235                 58.6235
   265   1      10.107499999999995      60.644999999999996      60.644999999999996
   266   1      12.128999999999996                 58.6235      60.644999999999996
   267   1      12.128999999999996      60.644999999999996                 58.6235
   268   1      10.107499999999995                 58.6235      62.666499999999999
   269   1      10.107499999999995      60.644999999999996      64.688000000000002
   270   1      12.128999999999996                 58.6235      64.688000000000002
   271   1      12.128999999999996      60.644999999999996      62.666499999999999
   272   1      10.107499999999995                 58.6235      66.709500000000006
   273   1      10.107499999999995      60.644999999999996      68.731000000000009
   274   1      12.128999999999996                 58.6235      68.731000000000009
   275   1      12.128999999999996      60.644999999999996      66.709500000000006
   276   1      10.107499999999995                 58.6235      70.752499999999998
   277   1      10.107499999999995      60.644999999999996      72.774000000000001
   278   1      12.128999999999996                 58.6235      72.774000000000001
   279   1      12.128999999999996      60.644999999999996      70.752499999999998
   280   1      10.107499999999995                 58.6235      74.795500000000004
   281   1      12.128999999999996                 58.6235      76.817000000000007
   282   1      12.128999999999996      60.644999999999996      74.795500000000004
   283   1      12.128999999999996                 58.6235      80.859999999999999
   284   1      12.128999999999996      60.644999999999996      78.838499999999982
   285   1      12.128999999999996      62.666499999999999                   40.43
   286   1      12.128999999999996      62.666499999999999      44.472999999999999
   287   1      12.128999999999996      64.688000000000002      42.451499999999989
   288   1      10.107499999999995      62.666499999999999      46.494500000000002
   289   1      10.107499999999995      64.688000000000002      48.515999999999998
   290   1      12.128999999999996      62.666499999999999      48.515999999999998
   291   1      12.128999999999996      64.688000000000002      46.494500000000002
   292   1      10.107499999999995      62.666499999999999      50.537500000000001
   293   1      10.107499999999995      64.688000000000002      52.559000000000005
   294   1      12.128999999999996      62.666499999999999      52.559000000000005
   295   1      12.128999999999996      64.688000000000002      50.537500000000001
   296   1      10.107499999999995      62.666499999999999      54.580499999999994
   297   1      10.107499999999995      64.688000000000002      56.602000000000004
   298   1      12.128999999999996      62.666499999999999      56.602000000000004
   299   1      12.128999999999996      64.688000000000002      54.580499999999994
   300   1      10.107499999999995      62.666499999999999                 58.6235
   301   1      10.107499999999995      64.688000000000002      60.644999999999996
   302   1      12.128999999999996      62.666499999999999      60.644999999999996
   303   1      12.128999999999996      64.688000000000002                 58.6235
   304   1      10.107499999999995      62.666499999999999      62.666499999999999
   305   1      10.107499999999995      64.688000000000002      64.688000000000002
   306   1      12.128999999999996      62.666499999999999      64.688000000000002
   307   1      12.128999999999996      64.688000000000002      62.666499999999999
   308   1      10.107499999999995      62.666499999999999      66.709500000000006
   309   1      10.107499999999995      64.688000000000002      68.731000000000009
   310   1      12.128999999999996      62.666499999999999      68.731000000000009
   311   1      12.128999999999996      64.688000000000002      66.709500000000006
   312   1      10.107499999999995      62.666499999999999      70.752499999999998
   313   1      12.128999999999996      62.666499999999999      72.774000000000001
   314   1      12.128999999999996      64.688000000000002      70.752499999999998
   315   1      12.128999999999996      62.666499999999999      76.817000000000007
   316   1      12.128999999999996      64.688000000000002      74.795500000000004
   317   1      12.128999999999996      66.709500000000006      44.472999999999999
   318   1      12.128999999999996      66.709500000000006      48.515999999999998
   319   1      12.128999999999996      68.731000000000009      46.494500000000002
   320   1      10.107499999999995      66.709500000000006      50.537500000000001
   321   1      10.107499999999995      68.731000000000009      52.559000000000005
   322   1      12.128999999999996      66.709500000000006      52.559000000000005
   323   1      12.128999999999996      68.731000000000009      50.537500000000001
   324   1      10.107499999999995      66.709500000000006      54.580499999999994
   325   1      10.107499999999995      68.731000000000009      56.602000000000004
   326   1      12.128999999999996      66.709500000000006      56.602000000000004
   327   1      12.128999999999996      68.731000000000009      54.580499999999994
   328   1      10.107499999999995      66.709500000000006                 58.6235
   329   1      10.107499999999995      68.731000000000009      60.644999999999996
   330   1      12.128999999999996      66.709500000000006      60.644999999999996
   331   1      12.128999999999996      68.731000000000009                 58.6235
   332   1      10.107499999999995      66.709500000000006      62.666499999999999
   333   1      10.107499999999995      68.731000000000009      64.688000000000002
   334   1      12.128999999999996      66.709500000000006      64.688000000000002
   335   1      12.128999999999996      68.731000000000009      62.666499999999999
   336   1      10.107499999999995      66.709500000000006      66.709500000000006
   337   1      12.128999999999996      66.709500000000006      68.731000000000009
   338   1      12.128999999999996      68.731000000000009      66.709500000000006
   339   1      12.128999999999996      66.709500000000006      72.774000000000001
   340   1      12.128999999999996      68.731000000000009      70.752499999999998
   341   1      12.128999999999996      70.752499999999998      48.515999999999998
   342   1      12.128999999999996      70.752499999999998      52.559000000000005
   343   1      12.128999999999996      72.774000000000001      50.537500000000001
   344   1      10.107499999999995      70.752499999999998      54.580499999999994
   345   1      10.107499999999995      72.774000000000001      56.602000000000004
   346   1      12.128999999999996      70.752499999999998      56.602000000000004
   347   1      12.128999999999996      72.774000000000001      54.580499999999994
   348   1      10.107499999999995      70.752499999999998                 58.6235
   349   1      10.107499999999995      72.774000000000001      60.644999999999996
   350   1      12.128999999999996      70.752499999999998      60.644999999999996
   351   1      12.128999999999996      72.774000000000001                 58.6235
   352   1      10.107499999999995      70.752499999999998      62.666499999999999
   353   1      12.128999999999996      70.752499999999998      64.688000000000002
   354   1      12.128999999999996      72.774000000000001      62.666499999999999
   355   1      12.128999999999996      70.752499999999998      68.731000000000009
   356   1      12.128999999999996      72.774000000000001      66.709500000000006
   357   1      12.128999999999996      74.795500000000004      52.559000000000005
   358   1      12.128999999999996      74.795500000000004      56.602000000000004