model_files/Ag/Ag_30000/Ag_431/data.Ag_431_fcc_29685 (written by ASE) 

29685 	 atoms 
1  atom types
0.0                     114  xlo xhi
0.0                     114  ylo yhi
0.0                     114  zlo zhi


Atoms 

     1   1      2.0450000000000088      51.125000000000007      57.260000000000005
     2   1  1.4210854715202004e-14      55.215000000000011      55.215000000000011
     3   1      2.0450000000000088      53.170000000000009      55.215000000000011
     4   1      2.0450000000000088      55.215000000000011      53.170000000000009
     5   1  1.4210854715202004e-14      53.170000000000009      57.260000000000005
     6   1  1.4210854715202004e-14      55.215000000000011      59.305000000000007
     7   1      2.0450000000000088      53.170000000000009      59.305000000000007
     8   1      2.0450000000000088      55.215000000000011      57.260000000000005
     9   1      2.0450000000000088      55.215000000000011      61.350000000000009
    10   1      2.0450000000000088      57.260000000000005      51.125000000000007
    11   1  1.4210854715202004e-14      57.260000000000005      53.170000000000009
    12   1  1.4210854715202004e-14      59.305000000000007      55.215000000000011
    13   1      2.0450000000000088      57.260000000000005      55.215000000000011
    14   1      2.0450000000000088      59.305000000000007      53.170000000000009
    15   1  1.4210854715202004e-14      57.260000000000005      57.260000000000005
    16   1  1.4210854715202004e-14      59.305000000000007      59.305000000000007
    17   1      2.0450000000000088      57.260000000000005      59.305000000000007
    18   1      2.0450000000000088      59.305000000000007      57.260000000000005
    19   1  1.4210854715202004e-14      57.260000000000005      61.350000000000009
    20   1      2.0450000000000088      57.260000000000005       63.39500000000001
    21   1      2.0450000000000088      59.305000000000007      61.350000000000009
    22   1      2.0450000000000088      61.350000000000009      55.215000000000011
    23   1  1.4210854715202004e-14      61.350000000000009      57.260000000000005
    24   1      2.0450000000000088      61.350000000000009      59.305000000000007
    25   1      2.0450000000000088       63.39500000000001      57.260000000000005
    26   1      6.1350000000000122      47.035000000000004      53.170000000000009
    27   1      6.1350000000000122      47.035000000000004      57.260000000000005
    28   1      6.1350000000000122      47.035000000000004      61.350000000000009
    29   1      4.0900000000000105      51.125000000000007      51.125000000000007
    30   1      6.1350000000000122      49.080000000000005      51.125000000000007
    31   1      6.1350000000000122      51.125000000000007      49.080000000000005
    32   1      4.0900000000000105      49.080000000000005      53.170000000000009
    33   1      4.0900000000000105      51.125000000000007      55.215000000000011
    34   1      6.1350000000000122      49.080000000000005      55.215000000000011
    35   1      6.1350000000000122      51.125000000000007      53.170000000000009
    36   1      4.0900000000000105      49.080000000000005      57.260000000000005
    37   1      4.0900000000000105      51.125000000000007      59.305000000000007
    38   1      6.1350000000000122      49.080000000000005      59.305000000000007
    39   1      6.1350000000000122      51.125000000000007      57.260000000000005
    40   1      4.0900000000000105      49.080000000000005      61.350000000000009
    41   1      4.0900000000000105      51.125000000000007       63.39500000000001
    42   1      6.1350000000000122      49.080000000000005       63.39500000000001
    43   1      6.1350000000000122      51.125000000000007      61.350000000000009
    44   1      6.1350000000000122      51.125000000000007      65.440000000000012
    45   1      6.1350000000000122      53.170000000000009      47.035000000000004
    46   1      4.0900000000000105      53.170000000000009      49.080000000000005
    47   1      4.0900000000000105      55.215000000000011      51.125000000000007
    48   1      6.1350000000000122      53.170000000000009      51.125000000000007
    49   1      6.1350000000000122      55.215000000000011      49.080000000000005
    50   1      4.0900000000000105      53.170000000000009      53.170000000000009
    51   1      4.0900000000000105      55.215000000000011      55.215000000000011
    52   1      6.1350000000000122      53.170000000000009      55.215000000000011
    53   1      6.1350000000000122      55.215000000000011      53.170000000000009
    54   1      4.0900000000000105      53.170000000000009      57.260000000000005
    55   1      4.0900000000000105      55.215000000000011      59.305000000000007
    56   1      6.1350000000000122      53.170000000000009      59.305000000000007
    57   1      6.1350000000000122      55.215000000000011      57.260000000000005
    58   1      4.0900000000000105      53.170000000000009      61.350000000000009
    59   1      4.0900000000000105      55.215000000000011       63.39500000000001
    60   1      6.1350000000000122      53.170000000000009       63.39500000000001
    61   1      6.1350000000000122      55.215000000000011      61.350000000000009
    62   1      4.0900000000000105      53.170000000000009      65.440000000000012
    63   1      6.1350000000000122      53.170000000000009      67.485000000000014
    64   1      6.1350000000000122      55.215000000000011      65.440000000000012
    65   1      6.1350000000000122      57.260000000000005      47.035000000000004
    66   1      4.0900000000000105      57.260000000000005      49.080000000000005
    67   1      4.0900000000000105      59.305000000000007      51.125000000000007
    68   1      6.1350000000000122      57.260000000000005      51.125000000000007
    69   1      6.1350000000000122      59.305000000000007      49.080000000000005
    70   1      4.0900000000000105      57.260000000000005      53.170000000000009
    71   1      4.0900000000000105      59.305000000000007      55.215000000000011
    72   1      6.1350000000000122      57.260000000000005      55.215000000000011
    73   1      6.1350000000000122      59.305000000000007      53.170000000000009
    74   1      4.0900000000000105      57.260000000000005      57.260000000000005
    75   1      4.0900000000000105      59.305000000000007      59.305000000000007
    76   1      6.1350000000000122      57.260000000000005      59.305000000000007
    77   1      6.1350000000000122      59.305000000000007      57.260000000000005
    78   1      4.0900000000000105      57.260000000000005      61.350000000000009
    79   1      4.0900000000000105      59.305000000000007       63.39500000000001
    80   1      6.1350000000000122      57.260000000000005       63.39500000000001
    81   1      6.1350000000000122      59.305000000000007      61.350000000000009
    82   1      4.0900000000000105      57.260000000000005      65.440000000000012
    83   1      6.1350000000000122      57.260000000000005      67.485000000000014
    84   1      6.1350000000000122      59.305000000000007      65.440000000000012
    85   1      6.1350000000000122      61.350000000000009      47.035000000000004
    86   1      4.0900000000000105      61.350000000000009      49.080000000000005
    87   1      4.0900000000000105       63.39500000000001      51.125000000000007
    88   1      6.1350000000000122      61.350000000000009      51.125000000000007
    89   1      6.1350000000000122       63.39500000000001      49.080000000000005
    90   1      4.0900000000000105      61.350000000000009      53.170000000000009
    91   1      4.0900000000000105       63.39500000000001      55.215000000000011
    92   1      6.1350000000000122      61.350000000000009      55.215000000000011
    93   1      6.1350000000000122       63.39500000000001      53.170000000000009
    94   1      4.0900000000000105      61.350000000000009      57.260000000000005
    95   1      4.0900000000000105       63.39500000000001      59.305000000000007
    96   1      6.1350000000000122      61.350000000000009      59.305000000000007
    97   1      6.1350000000000122       63.39500000000001      57.260000000000005
    98   1      4.0900000000000105      61.350000000000009      61.350000000000009
    99   1      4.0900000000000105       63.39500000000001       63.39500000000001
   100   1      6.1350000000000122      61.350000000000009       63.39500000000001
   101   1      6.1350000000000122       63.39500000000001      61.350000000000009
   102   1      4.0900000000000105      61.350000000000009      65.440000000000012
   103   1      6.1350000000000122      61.350000000000009      67.485000000000014
   104   1      6.1350000000000122       63.39500000000001      65.440000000000012
   105   1      6.1350000000000122      65.440000000000012      51.125000000000007
   106   1      4.0900000000000105      65.440000000000012      53.170000000000009
   107   1      6.1350000000000122      65.440000000000012      55.215000000000011
   108   1      6.1350000000000122      67.485000000000014      53.170000000000009
   109   1      4.0900000000000105      65.440000000000012      57.260000000000005
   110   1      6.1350000000000122      65.440000000000012      59.305000000000007
   111   1      6.1350000000000122      67.485000000000014      57.260000000000005
   112   1      4.0900000000000105      65.440000000000012      61.350000000000009
   113   1      6.1350000000000122      65.440000000000012       63.39500000000001
   114   1      6.1350000000000122      67.485000000000014      61.350000000000009
   115   1      10.225000000000009                  42.945      49.080000000000005
   116   1      8.1800000000000068                  42.945      55.215000000000011
   117   1      10.225000000000009      40.899999999999999      55.215000000000011
   118   1      10.225000000000009                  42.945      53.170000000000009
   119   1      8.1800000000000068                  42.945      59.305000000000007
   120   1      10.225000000000009      40.899999999999999      59.305000000000007
   121   1      10.225000000000009                  42.945      57.260000000000005
   122   1      10.225000000000009                  42.945      61.350000000000009
   123   1      10.225000000000009                  42.945      65.440000000000012
   124   1      8.1800000000000068      47.035000000000004      47.035000000000004
   125   1      10.225000000000009      44.990000000000002      47.035000000000004
   126   1      10.225000000000009      47.035000000000004      44.990000000000002
   127   1      8.1800000000000068      44.990000000000002      49.080000000000005
   128   1      8.1800000000000068      47.035000000000004      51.125000000000007
   129   1      10.225000000000009      44.990000000000002      51.125000000000007
   130   1      10.225000000000009      47.035000000000004      49.080000000000005
   131   1      8.1800000000000068      44.990000000000002      53.170000000000009
   132   1      8.1800000000000068      47.035000000000004      55.215000000000011
   133   1      10.225000000000009      44.990000000000002      55.215000000000011
   134   1      10.225000000000009      47.035000000000004      53.170000000000009
   135   1      8.1800000000000068      44.990000000000002      57.260000000000005
   136   1      8.1800000000000068      47.035000000000004      59.305000000000007
   137   1      10.225000000000009      44.990000000000002      59.305000000000007
   138   1      10.225000000000009      47.035000000000004      57.260000000000005
   139   1      8.1800000000000068      44.990000000000002      61.350000000000009
   140   1      8.1800000000000068      47.035000000000004       63.39500000000001
   141   1      10.225000000000009      44.990000000000002       63.39500000000001
   142   1      10.225000000000009      47.035000000000004      61.350000000000009
   143   1      8.1800000000000068      44.990000000000002      65.440000000000012
   144   1      8.1800000000000068      47.035000000000004      67.485000000000014
   145   1      10.225000000000009      44.990000000000002      67.485000000000014
   146   1      10.225000000000009      47.035000000000004      65.440000000000012
   147   1      10.225000000000009      47.035000000000004      69.530000000000015
   148   1      10.225000000000009      49.080000000000005                  42.945
   149   1      8.1800000000000068      49.080000000000005      44.990000000000002
   150   1      8.1800000000000068      51.125000000000007      47.035000000000004
   151   1      10.225000000000009      49.080000000000005      47.035000000000004
   152   1      10.225000000000009      51.125000000000007      44.990000000000002
   153   1      8.1800000000000068      49.080000000000005      49.080000000000005
   154   1      8.1800000000000068      51.125000000000007      51.125000000000007
   155   1      10.225000000000009      49.080000000000005      51.125000000000007
   156   1      10.225000000000009      51.125000000000007      49.080000000000005
   157   1      8.1800000000000068      49.080000000000005      53.170000000000009
   158   1      8.1800000000000068      51.125000000000007      55.215000000000011
   159   1      10.225000000000009      49.080000000000005      55.215000000000011
   160   1      10.225000000000009      51.125000000000007      53.170000000000009
   161   1      8.1800000000000068      49.080000000000005      57.260000000000005
   162   1      8.1800000000000068      51.125000000000007      59.305000000000007
   163   1      10.225000000000009      49.080000000000005      59.305000000000007
   164   1      10.225000000000009      51.125000000000007      57.260000000000005
   165   1      8.1800000000000068      49.080000000000005      61.350000000000009
   166   1      8.1800000000000068      51.125000000000007       63.39500000000001
   167   1      10.225000000000009      49.080000000000005       63.39500000000001
   168   1      10.225000000000009      51.125000000000007      61.350000000000009
   169   1      8.1800000000000068      49.080000000000005      65.440000000000012
   170   1      8.1800000000000068      51.125000000000007      67.485000000000014
   171   1      10.225000000000009      49.080000000000005      67.485000000000014
   172   1      10.225000000000009      51.125000000000007      65.440000000000012
   173   1      8.1800000000000068      49.080000000000005      69.530000000000015
   174   1      10.225000000000009      49.080000000000005      71.575000000000017
   175   1      10.225000000000009      51.125000000000007      69.530000000000015
   176   1      8.1800000000000068      55.215000000000011                  42.945
   177   1      10.225000000000009      53.170000000000009                  42.945
   178   1      10.225000000000009      55.215000000000011      40.899999999999999
   179   1      8.1800000000000068      53.170000000000009      44.990000000000002
   180   1      8.1800000000000068      55.215000000000011      47.035000000000004
   181   1      10.225000000000009      53.170000000000009      47.035000000000004
   182   1      10.225000000000009      55.215000000000011      44.990000000000002
   183   1      8.1800000000000068      53.170000000000009      49.080000000000005
   184   1      8.1800000000000068      55.215000000000011      51.125000000000007
   185   1      10.225000000000009      53.170000000000009      51.125000000000007
   186   1      10.225000000000009      55.215000000000011      49.080000000000005
   187   1      8.1800000000000068      53.170000000000009      53.170000000000009
   188   1      8.1800000000000068      55.215000000000011      55.215000000000011
   189   1      10.225000000000009      53.170000000000009      55.215000000000011
   190   1      10.225000000000009      55.215000000000011      53.170000000000009
   191   1      8.1800000000000068      53.170000000000009      57.260000000000005
   192   1      8.1800000000000068      55.215000000000011      59.305000000000007
   193   1      10.225000000000009      53.170000000000009      59.305000000000007
   194   1      10.225000000000009      55.215000000000011      57.260000000000005
   195   1      8.1800000000000068      53.170000000000009      61.350000000000009
   196   1      8.1800000000000068      55.215000000000011       63.39500000000001
   197   1      10.225000000000009      53.170000000000009       63.39500000000001
   198   1      10.225000000000009      55.215000000000011      61.350000000000009
   199   1      8.1800000000000068      53.170000000000009      65.440000000000012
   200   1      8.1800000000000068      55.215000000000011      67.485000000000014
   201   1      10.225000000000009      53.170000000000009      67.485000000000014
   202   1      10.225000000000009      55.215000000000011      65.440000000000012
   203   1      8.1800000000000068      53.170000000000009      69.530000000000015
   204   1      8.1800000000000068      55.215000000000011      71.575000000000017
   205   1      10.225000000000009      53.170000000000009      71.575000000000017
   206   1      10.225000000000009      55.215000000000011      69.530000000000015
   207   1      10.225000000000009      55.215000000000011      73.620000000000005
   208   1      8.1800000000000068      59.305000000000007                  42.945
   209   1      10.225000000000009      57.260000000000005                  42.945
   210   1      10.225000000000009      59.305000000000007      40.899999999999999
   211   1      8.1800000000000068      57.260000000000005      44.990000000000002
   212   1      8.1800000000000068      59.305000000000007      47.035000000000004
   213   1      10.225000000000009      57.260000000000005      47.035000000000004
   214   1      10.225000000000009      59.305000000000007      44.990000000000002
   215   1      8.1800000000000068      57.260000000000005      49.080000000000005
   216   1      8.1800000000000068      59.305000000000007      51.125000000000007
   217   1      10.225000000000009      57.260000000000005      51.125000000000007
   218   1      10.225000000000009      59.305000000000007      49.080000000000005
   219   1      8.1800000000000068      57.260000000000005      53.170000000000009
   220   1      8.1800000000000068      59.305000000000007      55.215000000000011
   221   1      10.225000000000009      57.260000000000005      55.215000000000011
   222   1      10.225000000000009      59.305000000000007      53.170000000000009
   223   1      8.1800000000000068      57.260000000000005      57.260000000000005
   224   1      8.1800000000000068      59.305000000000007      59.305000000000007
   225   1      10.225000000000009      57.260000000000005      59.305000000000007
   226   1      10.225000000000009      59.305000000000007      57.260000000000005
   227   1      8.1800000000000068      57.260000000000005      61.350000000000009
   228   1      8.1800000000000068      59.305000000000007       63.39500000000001
   229   1      10.225000000000009      57.260000000000005       63.39500000000001
   230   1      10.225000000000009      59.305000000000007      61.350000000000009
   231   1      8.1800000000000068      57.260000000000005      65.440000000000012
   232   1      8.1800000000000068      59.305000000000007      67.485000000000014
   233   1      10.225000000000009      57.260000000000005      67.485000000000014
   234   1      10.225000000000009      59.305000000000007      65.440000000000012
   235   1      8.1800000000000068      57.260000000000005      69.530000000000015
   236   1      8.1800000000000068      59.305000000000007      71.575000000000017
   237   1      10.225000000000009      57.260000000000005      71.575000000000017
   238   1      10.225000000000009      59.305000000000007      69.530000000000015
   239   1      10.225000000000009      59.305000000000007      73.620000000000005
   240   1      10.225000000000009      61.350000000000009                  42.945
   241   1      8.1800000000000068      61.350000000000009      44.990000000000002
   242   1      8.1800000000000068       63.39500000000001      47.035000000000004
   243   1      10.225000000000009      61.350000000000009      47.035000000000004
   244   1      10.225000000000009       63.39500000000001      44.990000000000002
   245   1      8.1800000000000068      61.350000000000009      49.080000000000005
   246   1      8.1800000000000068       63.39500000000001      51.125000000000007
   247   1      10.225000000000009      61.350000000000009      51.125000000000007
   248   1      10.225000000000009       63.39500000000001      49.080000000000005
   249   1      8.1800000000000068      61.350000000000009      53.170000000000009
   250   1      8.1800000000000068       63.39500000000001      55.215000000000011
   251   1      10.225000000000009      61.350000000000009      55.215000000000011
   252   1      10.225000000000009       63.39500000000001      53.170000000000009
   253   1      8.1800000000000068      61.350000000000009      57.260000000000005
   254   1      8.1800000000000068       63.39500000000001      59.305000000000007
   255   1      10.225000000000009      61.350000000000009      59.305000000000007
   256   1      10.225000000000009       63.39500000000001      57.260000000000005
   257   1      8.1800000000000068      61.350000000000009      61.350000000000009
   258   1      8.1800000000000068       63.39500000000001       63.39500000000001
   259   1      10.225000000000009      61.350000000000009       63.39500000000001
   260   1      10.225000000000009       63.39500000000001      61.350000000000009
   261   1      8.1800000000000068      61.350000000000009      65.440000000000012
   262   1      8.1800000000000068       63.39500000000001      67.485000000000014
   263   1      10.225000000000009      61.350000000000009      67.485000000000014
   264   1      10.225000000000009       63.39500000000001      65.440000000000012
   265   1      8.1800000000000068      61.350000000000009      69.530000000000015
   266   1      10.225000000000009      61.350000000000009      71.575000000000017
   267   1      10.225000000000009       63.39500000000001      69.530000000000015
   268   1      10.225000000000009      65.440000000000012                  42.945
   269   1      8.1800000000000068      65.440000000000012      44.990000000000002
   270   1      8.1800000000000068      67.485000000000014      47.035000000000004
   271   1      10.225000000000009      65.440000000000012      47.035000000000004
   272   1      10.225000000000009      67.485000000000014      44.990000000000002
   273   1      8.1800000000000068      65.440000000000012      49.080000000000005
   274   1      8.1800000000000068      67.485000000000014      51.125000000000007
   275   1      10.225000000000009      65.440000000000012      51.125000000000007
   276   1      10.225000000000009      67.485000000000014      49.080000000000005
   277   1      8.1800000000000068      65.440000000000012      53.170000000000009
   278   1      8.1800000000000068      67.485000000000014      55.215000000000011
   279   1      10.225000000000009      65.440000000000012      55.215000000000011
   280   1      10.225000000000009      67.485000000000014      53.170000000000009
   281   1      8.1800000000000068      65.440000000000012      57.260000000000005
   282   1      8.1800000000000068      67.485000000000014      59.305000000000007
   283   1      10.225000000000009      65.440000000000012      59.305000000000007
   284   1      10.225000000000009      67.485000000000014      57.260000000000005
   285   1      8.1800000000000068      65.440000000000012      61.350000000000009
   286   1      8.1800000000000068      67.485000000000014       63.39500000000001
   287   1      10.225000000000009      65.440000000000012       63.39500000000001
   288   1      10.225000000000009      67.485000000000014      61.350000000000009
   289   1      8.1800000000000068      65.440000000000012      65.440000000000012
   290   1      8.1800000000000068      67.485000000000014      67.485000000000014
   291   1      10.225000000000009      65.440000000000012      67.485000000000014
   292   1      10.225000000000009      67.485000000000014      65.440000000000012
   293   1      8.1800000000000068      65.440000000000012      69.530000000000015
   294   1      10.225000000000009      65.440000000000012      71.575000000000017
   295   1      10.225000000000009      67.485000000000014      69.530000000000015
   296   1      10.225000000000009      69.530000000000015      47.035000000000004
   297   1      8.1800000000000068      69.530000000000015      49.080000000000005
   298   1      10.225000000000009      69.530000000000015      51.125000000000007
   299   1      10.225000000000009      71.575000000000017      49.080000000000005
   300   1      8.1800000000000068      69.530000000000015      53.170000000000009
   301   1      8.1800000000000068      71.575000000000017      55.215000000000011
   302   1      10.225000000000009      69.530000000000015      55.215000000000011
   303   1      10.225000000000009      71.575000000000017      53.170000000000009
   304   1      8.1800000000000068      69.530000000000015      57.260000000000005
   305   1      8.1800000000000068      71.575000000000017      59.305000000000007
   306   1      10.225000000000009      69.530000000000015      59.305000000000007
   307   1      10.225000000000009      71.575000000000017      57.260000000000005
   308   1      8.1800000000000068      69.530000000000015      61.350000000000009
   309   1      10.225000000000009      69.530000000000015       63.39500000000001
   310   1      10.225000000000009      71.575000000000017      61.350000000000009
   311   1      8.1800000000000068      69.530000000000015      65.440000000000012
   312   1      10.225000000000009      69.530000000000015      67.485000000000014
   313   1      10.225000000000009      71.575000000000017      65.440000000000012
   314   1      10.225000000000009      73.620000000000005      55.215000000000011
   315   1      10.225000000000009      73.620000000000005      59.305000000000007
   316   1       14.31500000000001      34.765000000000015      57.260000000000005
   317   1       14.31500000000001      38.855000000000011      44.990000000000002
   318   1       12.27000000000001      38.855000000000011      51.125000000000007
   319   1       14.31500000000001      36.810000000000009      51.125000000000007
   320   1       14.31500000000001      38.855000000000011      49.080000000000005
   321   1       12.27000000000001      38.855000000000011      55.215000000000011
   322   1       14.31500000000001      36.810000000000009      55.215000000000011
   323   1       14.31500000000001      38.855000000000011      53.170000000000009
   324   1       12.27000000000001      36.810000000000009      57.260000000000005
   325   1       12.27000000000001      38.855000000000011      59.305000000000007
   326   1       14.31500000000001      36.810000000000009      59.305000000000007
   327   1       14.31500000000001      38.855000000000011      57.260000000000005
   328   1       12.27000000000001      38.855000000000011       63.39500000000001
   329   1       14.31500000000001      36.810000000000009       63.39500000000001
   330   1       14.31500000000001      38.855000000000011      61.350000000000009
   331   1       14.31500000000001      38.855000000000011      65.440000000000012
   332   1       14.31500000000001      38.855000000000011      69.530000000000015
   333   1       12.27000000000001                  42.945                  42.945
   334   1       14.31500000000001      40.899999999999999                  42.945
   335   1       14.31500000000001                  42.945      40.899999999999999
   336   1       12.27000000000001      40.899999999999999      44.990000000000002
   337   1       12.27000000000001                  42.945      47.035000000000004
   338   1       14.31500000000001      40.899999999999999      47.035000000000004
   339   1       14.31500000000001                  42.945      44.990000000000002
   340   1       12.27000000000001      40.899999999999999      49.080000000000005
   341   1       12.27000000000001                  42.945      51.125000000000007
   342   1       14.31500000000001      40.899999999999999      51.125000000000007
   343   1       14.31500000000001                  42.945      49.080000000000005
   344   1       12.27000000000001      40.899999999999999      53.170000000000009
   345   1       12.27000000000001                  42.945      55.215000000000011
   346   1       14.31500000000001      40.899999999999999      55.215000000000011
   347   1       14.31500000000001                  42.945      53.170000000000009
   348   1       12.27000000000001      40.899999999999999      57.260000000000005
   349   1       12.27000000000001                  42.945      59.305000000000007
   350   1       14.31500000000001      40.899999999999999      59.305000000000007
   351   1       14.31500000000001                  42.945      57.260000000000005
   352   1       12.27000000000001      40.899999999999999      61.350000000000009
   353   1       12.27000000000001                  42.945       63.39500000000001
   354   1       14.31500000000001      40.899999999999999       63.39500000000001
   355   1       14.31500000000001                  42.945      61.350000000000009
   356   1       12.27000000000001      40.899999999999999      65.440000000000012
   357   1       12.27000000000001                  42.945      67.485000000000014
   358   1       14.31500000000001      40.899999999999999      67.485000000000014