model_files/PtFe/PtFe_30000/PtFe_554/PtFe_554_fcc_29683_temp.data (written by ASE) 

29683 	 atoms 
2  atom types
0.0                     129  xlo xhi
0.0                     129  ylo yhi
0.0                     129  zlo zhi


Atoms 

     1   1      1.8800000000000097      62.040000000000006      63.920000000000002
     2   1      1.8800000000000097      63.920000000000002      62.040000000000006
     3   1  7.1054273576010019e-15      63.920000000000002      63.920000000000002
     4   1      1.8800000000000097      63.920000000000002      65.799999999999997
     5   1      1.8800000000000097      65.799999999999997      63.920000000000002
     6   1      5.6400000000000077      58.280000000000008      63.920000000000002
     7   1      3.7600000000000051      62.040000000000006      62.040000000000006
     8   1      5.6400000000000077      60.160000000000004      62.040000000000006
     9   1      5.6400000000000077      62.040000000000006      60.160000000000004
    10   1      3.7600000000000051      60.160000000000004      63.920000000000002
    11   1      3.7600000000000051      62.040000000000006      65.799999999999997
    12   1      5.6400000000000077      60.160000000000004      65.799999999999997
    13   1      5.6400000000000077      62.040000000000006      63.920000000000002
    14   1      5.6400000000000077      62.040000000000006      67.680000000000007
    15   1      5.6400000000000077      63.920000000000002      58.280000000000008
    16   1      3.7600000000000051      63.920000000000002      60.160000000000004
    17   1      3.7600000000000051      65.799999999999997      62.040000000000006
    18   1      5.6400000000000077      63.920000000000002      62.040000000000006
    19   1      5.6400000000000077      65.799999999999997      60.160000000000004
    20   1      3.7600000000000051      63.920000000000002      63.920000000000002
    21   1      3.7600000000000051      65.799999999999997      65.799999999999997
    22   1      5.6400000000000077      63.920000000000002      65.799999999999997
    23   1      5.6400000000000077      65.799999999999997      63.920000000000002
    24   1      3.7600000000000051      63.920000000000002      67.680000000000007
    25   1      5.6400000000000077      63.920000000000002      69.560000000000002
    26   1      5.6400000000000077      65.799999999999997      67.680000000000007
    27   1      5.6400000000000077      67.680000000000007      62.040000000000006
    28   1      3.7600000000000051      67.680000000000007      63.920000000000002
    29   1      5.6400000000000077      67.680000000000007      65.799999999999997
    30   1      5.6400000000000077      69.560000000000002      63.920000000000002
    31   1      9.4000000000000057       54.52000000000001      63.920000000000002
    32   1      7.5200000000000102      58.280000000000008      62.040000000000006
    33   1      9.4000000000000057      56.400000000000006      62.040000000000006
    34   1      9.4000000000000057      58.280000000000008      60.160000000000004
    35   1      7.5200000000000102      56.400000000000006      63.920000000000002
    36   1      7.5200000000000102      58.280000000000008      65.799999999999997
    37   1      9.4000000000000057      56.400000000000006      65.799999999999997
    38   1      9.4000000000000057      58.280000000000008      63.920000000000002
    39   1      9.4000000000000057      58.280000000000008      67.680000000000007
    40   1      7.5200000000000102      62.040000000000006      58.280000000000008
    41   1      9.4000000000000057      60.160000000000004      58.280000000000008
    42   1      9.4000000000000057      62.040000000000006      56.400000000000006
    43   1      7.5200000000000102      60.160000000000004      60.160000000000004
    44   1      7.5200000000000102      62.040000000000006      62.040000000000006
    45   1      9.4000000000000057      60.160000000000004      62.040000000000006
    46   1      9.4000000000000057      62.040000000000006      60.160000000000004
    47   1      7.5200000000000102      60.160000000000004      63.920000000000002
    48   1      7.5200000000000102      62.040000000000006      65.799999999999997
    49   1      9.4000000000000057      60.160000000000004      65.799999999999997
    50   1      9.4000000000000057      62.040000000000006      63.920000000000002
    51   1      7.5200000000000102      60.160000000000004      67.680000000000007
    52   1      7.5200000000000102      62.040000000000006      69.560000000000002
    53   1      9.4000000000000057      60.160000000000004      69.560000000000002
    54   1      9.4000000000000057      62.040000000000006      67.680000000000007
    55   1      9.4000000000000057      62.040000000000006      71.439999999999998
    56   1      9.4000000000000057      63.920000000000002       54.52000000000001
    57   1      7.5200000000000102      63.920000000000002      56.400000000000006
    58   1      7.5200000000000102      65.799999999999997      58.280000000000008
    59   1      9.4000000000000057      63.920000000000002      58.280000000000008
    60   1      9.4000000000000057      65.799999999999997      56.400000000000006
    61   1      7.5200000000000102      63.920000000000002      60.160000000000004
    62   1      7.5200000000000102      65.799999999999997      62.040000000000006
    63   1      9.4000000000000057      63.920000000000002      62.040000000000006
    64   1      9.4000000000000057      65.799999999999997      60.160000000000004
    65   1      7.5200000000000102      63.920000000000002      63.920000000000002
    66   1      7.5200000000000102      65.799999999999997      65.799999999999997
    67   1      9.4000000000000057      63.920000000000002      65.799999999999997
    68   1      9.4000000000000057      65.799999999999997      63.920000000000002
    69   1      7.5200000000000102      63.920000000000002      67.680000000000007
    70   1      7.5200000000000102      65.799999999999997      69.560000000000002
    71   1      9.4000000000000057      63.920000000000002      69.560000000000002
    72   1      9.4000000000000057      65.799999999999997      67.680000000000007
    73   1      7.5200000000000102      63.920000000000002      71.439999999999998
    74   1      9.4000000000000057      63.920000000000002      73.319999999999993
    75   1      9.4000000000000057      65.799999999999997      71.439999999999998
    76   1      9.4000000000000057      67.680000000000007      58.280000000000008
    77   1      7.5200000000000102      67.680000000000007      60.160000000000004
    78   1      7.5200000000000102      69.560000000000002      62.040000000000006
    79   1      9.4000000000000057      67.680000000000007      62.040000000000006
    80   1      9.4000000000000057      69.560000000000002      60.160000000000004
    81   1      7.5200000000000102      67.680000000000007      63.920000000000002
    82   1      7.5200000000000102      69.560000000000002      65.799999999999997
    83   1      9.4000000000000057      67.680000000000007      65.799999999999997
    84   1      9.4000000000000057      69.560000000000002      63.920000000000002
    85   1      7.5200000000000102      67.680000000000007      67.680000000000007
    86   1      9.4000000000000057      67.680000000000007      69.560000000000002
    87   1      9.4000000000000057      69.560000000000002      67.680000000000007
    88   1      9.4000000000000057      71.439999999999998      62.040000000000006
    89   1      7.5200000000000102      71.439999999999998      63.920000000000002
    90   1      9.4000000000000057      71.439999999999998      65.799999999999997
    91   1      9.4000000000000057      73.319999999999993      63.920000000000002
    92   1      13.160000000000009      50.760000000000012      63.920000000000002
    93   1      11.280000000000008       54.52000000000001      62.040000000000006
    94   1      13.160000000000009      52.640000000000001      62.040000000000006
    95   1      13.160000000000009       54.52000000000001      60.160000000000004
    96   1      11.280000000000008      52.640000000000001      63.920000000000002
    97   1      11.280000000000008       54.52000000000001      65.799999999999997
    98   1      13.160000000000009      52.640000000000001      65.799999999999997
    99   1      13.160000000000009       54.52000000000001      63.920000000000002
   100   1      13.160000000000009       54.52000000000001      67.680000000000007
   101   1      11.280000000000008      58.280000000000008      58.280000000000008
   102   1      13.160000000000009      56.400000000000006      58.280000000000008
   103   1      13.160000000000009      58.280000000000008      56.400000000000006
   104   1      11.280000000000008      56.400000000000006      60.160000000000004
   105   1      11.280000000000008      58.280000000000008      62.040000000000006
   106   1      13.160000000000009      56.400000000000006      62.040000000000006
   107   1      13.160000000000009      58.280000000000008      60.160000000000004
   108   1      11.280000000000008      56.400000000000006      63.920000000000002
   109   1      11.280000000000008      58.280000000000008      65.799999999999997
   110   1      13.160000000000009      56.400000000000006      65.799999999999997
   111   1      13.160000000000009      58.280000000000008      63.920000000000002
   112   1      11.280000000000008      56.400000000000006      67.680000000000007
   113   1      11.280000000000008      58.280000000000008      69.560000000000002
   114   1      13.160000000000009      56.400000000000006      69.560000000000002
   115   1      13.160000000000009      58.280000000000008      67.680000000000007
   116   1      13.160000000000009      58.280000000000008      71.439999999999998
   117   1      11.280000000000008      62.040000000000006       54.52000000000001
   118   1      13.160000000000009      60.160000000000004       54.52000000000001
   119   1      13.160000000000009      62.040000000000006      52.640000000000001
   120   1      11.280000000000008      60.160000000000004      56.400000000000006
   121   1      11.280000000000008      62.040000000000006      58.280000000000008
   122   1      13.160000000000009      60.160000000000004      58.280000000000008
   123   1      13.160000000000009      62.040000000000006      56.400000000000006
   124   1      11.280000000000008      60.160000000000004      60.160000000000004
   125   1      11.280000000000008      62.040000000000006      62.040000000000006
   126   1      13.160000000000009      60.160000000000004      62.040000000000006
   127   1      13.160000000000009      62.040000000000006      60.160000000000004
   128   1      11.280000000000008      60.160000000000004      63.920000000000002
   129   1      11.280000000000008      62.040000000000006      65.799999999999997
   130   1      13.160000000000009      60.160000000000004      65.799999999999997
   131   1      13.160000000000009      62.040000000000006      63.920000000000002
   132   1      11.280000000000008      60.160000000000004      67.680000000000007
   133   1      11.280000000000008      62.040000000000006      69.560000000000002
   134   1      13.160000000000009      60.160000000000004      69.560000000000002
   135   1      13.160000000000009      62.040000000000006      67.680000000000007
   136   1      11.280000000000008      60.160000000000004      71.439999999999998
   137   1      11.280000000000008      62.040000000000006      73.319999999999993
   138   1      13.160000000000009      60.160000000000004      73.319999999999993
   139   1      13.160000000000009      62.040000000000006      71.439999999999998
   140   1      13.160000000000009      62.040000000000006      75.200000000000003
   141   1      13.160000000000009      63.920000000000002      50.760000000000012
   142   1      11.280000000000008      63.920000000000002      52.640000000000001
   143   1      11.280000000000008      65.799999999999997       54.52000000000001
   144   1      13.160000000000009      63.920000000000002       54.52000000000001
   145   1      13.160000000000009      65.799999999999997      52.640000000000001
   146   1      11.280000000000008      63.920000000000002      56.400000000000006
   147   1      11.280000000000008      65.799999999999997      58.280000000000008
   148   1      13.160000000000009      63.920000000000002      58.280000000000008
   149   1      13.160000000000009      65.799999999999997      56.400000000000006
   150   1      11.280000000000008      63.920000000000002      60.160000000000004
   151   1      11.280000000000008      65.799999999999997      62.040000000000006
   152   1      13.160000000000009      63.920000000000002      62.040000000000006
   153   1      13.160000000000009      65.799999999999997      60.160000000000004
   154   1      11.280000000000008      63.920000000000002      63.920000000000002
   155   1      11.280000000000008      65.799999999999997      65.799999999999997
   156   1      13.160000000000009      63.920000000000002      65.799999999999997
   157   1      13.160000000000009      65.799999999999997      63.920000000000002
   158   1      11.280000000000008      63.920000000000002      67.680000000000007
   159   1      11.280000000000008      65.799999999999997      69.560000000000002
   160   1      13.160000000000009      63.920000000000002      69.560000000000002
   161   1      13.160000000000009      65.799999999999997      67.680000000000007
   162   1      11.280000000000008      63.920000000000002      71.439999999999998
   163   1      11.280000000000008      65.799999999999997      73.319999999999993
   164   1      13.160000000000009      63.920000000000002      73.319999999999993
   165   1      13.160000000000009      65.799999999999997      71.439999999999998
   166   1      11.280000000000008      63.920000000000002      75.200000000000003
   167   1      13.160000000000009      63.920000000000002      77.079999999999998
   168   1      13.160000000000009      65.799999999999997      75.200000000000003
   169   1      13.160000000000009      67.680000000000007       54.52000000000001
   170   1      11.280000000000008      67.680000000000007      56.400000000000006
   171   1      11.280000000000008      69.560000000000002      58.280000000000008
   172   1      13.160000000000009      67.680000000000007      58.280000000000008
   173   1      13.160000000000009      69.560000000000002      56.400000000000006
   174   1      11.280000000000008      67.680000000000007      60.160000000000004
   175   1      11.280000000000008      69.560000000000002      62.040000000000006
   176   1      13.160000000000009      67.680000000000007      62.040000000000006
   177   1      13.160000000000009      69.560000000000002      60.160000000000004
   178   1      11.280000000000008      67.680000000000007      63.920000000000002
   179   1      11.280000000000008      69.560000000000002      65.799999999999997
   180   1      13.160000000000009      67.680000000000007      65.799999999999997
   181   1      13.160000000000009      69.560000000000002      63.920000000000002
   182   1      11.280000000000008      67.680000000000007      67.680000000000007
   183   1      11.280000000000008      69.560000000000002      69.560000000000002
   184   1      13.160000000000009      67.680000000000007      69.560000000000002
   185   1      13.160000000000009      69.560000000000002      67.680000000000007
   186   1      11.280000000000008      67.680000000000007      71.439999999999998
   187   1      13.160000000000009      67.680000000000007      73.319999999999993
   188   1      13.160000000000009      69.560000000000002      71.439999999999998
   189   1      13.160000000000009      71.439999999999998      58.280000000000008
   190   1      11.280000000000008      71.439999999999998      60.160000000000004
   191   1      11.280000000000008      73.319999999999993      62.040000000000006
   192   1      13.160000000000009      71.439999999999998      62.040000000000006
   193   1      13.160000000000009      73.319999999999993      60.160000000000004
   194   1      11.280000000000008      71.439999999999998      63.920000000000002
   195   1      11.280000000000008      73.319999999999993      65.799999999999997
   196   1      13.160000000000009      71.439999999999998      65.799999999999997
   197   1      13.160000000000009      73.319999999999993      63.920000000000002
   198   1      11.280000000000008      71.439999999999998      67.680000000000007
   199   1      13.160000000000009      71.439999999999998      69.560000000000002
   200   1      13.160000000000009      73.319999999999993      67.680000000000007
   201   1      13.160000000000009      75.200000000000003      62.040000000000006
   202   1      11.280000000000008      75.200000000000003      63.920000000000002
   203   1      13.160000000000009      75.200000000000003      65.799999999999997
   204   1      13.160000000000009      77.079999999999998      63.920000000000002
   205   1      16.920000000000002      47.000000000000007      63.920000000000002
   206   1      15.040000000000006      50.760000000000012      62.040000000000006
   207   1      16.920000000000002       48.88000000000001      62.040000000000006
   208   1      16.920000000000002      50.760000000000012      60.160000000000004
   209   1      15.040000000000006       48.88000000000001      63.920000000000002
   210   1      15.040000000000006      50.760000000000012      65.799999999999997
   211   1      16.920000000000002       48.88000000000001      65.799999999999997
   212   1      16.920000000000002      50.760000000000012      63.920000000000002
   213   1      16.920000000000002      50.760000000000012      67.680000000000007
   214   1      15.040000000000006       54.52000000000001      58.280000000000008
   215   1      16.920000000000002      52.640000000000001      58.280000000000008
   216   1      16.920000000000002       54.52000000000001      56.400000000000006
   217   1      15.040000000000006      52.640000000000001      60.160000000000004
   218   1      15.040000000000006       54.52000000000001      62.040000000000006
   219   1      16.920000000000002      52.640000000000001      62.040000000000006
   220   1      16.920000000000002       54.52000000000001      60.160000000000004
   221   1      15.040000000000006      52.640000000000001      63.920000000000002
   222   1      15.040000000000006       54.52000000000001      65.799999999999997
   223   1      16.920000000000002      52.640000000000001      65.799999999999997
   224   1      16.920000000000002       54.52000000000001      63.920000000000002
   225   1      15.040000000000006      52.640000000000001      67.680000000000007
   226   1      15.040000000000006       54.52000000000001      69.560000000000002
   227   1      16.920000000000002      52.640000000000001      69.560000000000002
   228   1      16.920000000000002       54.52000000000001      67.680000000000007
   229   1      16.920000000000002       54.52000000000001      71.439999999999998
   230   1      15.040000000000006      58.280000000000008       54.52000000000001
   231   1      16.920000000000002      56.400000000000006       54.52000000000001
   232   1      16.920000000000002      58.280000000000008      52.640000000000001
   233   1      15.040000000000006      56.400000000000006      56.400000000000006
   234   1      15.040000000000006      58.280000000000008      58.280000000000008
   235   1      16.920000000000002      56.400000000000006      58.280000000000008
   236   1      16.920000000000002      58.280000000000008      56.400000000000006
   237   1      15.040000000000006      56.400000000000006      60.160000000000004
   238   1      15.040000000000006      58.280000000000008      62.040000000000006
   239   1      16.920000000000002      56.400000000000006      62.040000000000006
   240   1      16.920000000000002      58.280000000000008      60.160000000000004
   241   1      15.040000000000006      56.400000000000006      63.920000000000002
   242   1      15.040000000000006      58.280000000000008      65.799999999999997
   243   1      16.920000000000002      56.400000000000006      65.799999999999997
   244   1      16.920000000000002      58.280000000000008      63.920000000000002
   245   1      15.040000000000006      56.400000000000006      67.680000000000007
   246   1      15.040000000000006      58.280000000000008      69.560000000000002
   247   1      16.920000000000002      56.400000000000006      69.560000000000002
   248   1      16.920000000000002      58.280000000000008      67.680000000000007
   249   1      15.040000000000006      56.400000000000006      71.439999999999998
   250   1      15.040000000000006      58.280000000000008      73.319999999999993
   251   1      16.920000000000002      56.400000000000006      73.319999999999993
   252   1      16.920000000000002      58.280000000000008      71.439999999999998
   253   1      16.920000000000002      58.280000000000008      75.200000000000003
   254   1      15.040000000000006      62.040000000000006      50.760000000000012
   255   1      16.920000000000002      60.160000000000004      50.760000000000012
   256   1      16.920000000000002      62.040000000000006       48.88000000000001
   257   1      15.040000000000006      60.160000000000004      52.640000000000001
   258   1      15.040000000000006      62.040000000000006       54.52000000000001
   259   1      16.920000000000002      60.160000000000004       54.52000000000001
   260   1      16.920000000000002      62.040000000000006      52.640000000000001
   261   1      15.040000000000006      60.160000000000004      56.400000000000006
   262   1      15.040000000000006      62.040000000000006      58.280000000000008
   263   1      16.920000000000002      60.160000000000004      58.280000000000008
   264   1      16.920000000000002      62.040000000000006      56.400000000000006
   265   1      15.040000000000006      60.160000000000004      60.160000000000004
   266   1      15.040000000000006      62.040000000000006      62.040000000000006
   267   1      16.920000000000002      60.160000000000004      62.040000000000006
   268   1      16.920000000000002      62.040000000000006      60.160000000000004
   269   1      15.040000000000006      60.160000000000004      63.920000000000002
   270   1      15.040000000000006      62.040000000000006      65.799999999999997
   271   1      16.920000000000002      60.160000000000004      65.799999999999997
   272   1      16.920000000000002      62.040000000000006      63.920000000000002
   273   1      15.040000000000006      60.160000000000004      67.680000000000007
   274   1      15.040000000000006      62.040000000000006      69.560000000000002
   275   1      16.920000000000002      60.160000000000004      69.560000000000002
   276   1      16.920000000000002      62.040000000000006      67.680000000000007
   277   1      15.040000000000006      60.160000000000004      71.439999999999998
   278   1      15.040000000000006      62.040000000000006      73.319999999999993
   279   1      16.920000000000002      60.160000000000004      73.319999999999993
   280   1      16.920000000000002      62.040000000000006      71.439999999999998
   281   1      15.040000000000006      60.160000000000004      75.200000000000003
   282   1      15.040000000000006      62.040000000000006      77.079999999999998
   283   1      16.920000000000002      60.160000000000004      77.079999999999998
   284   1      16.920000000000002      62.040000000000006      75.200000000000003
   285   1      16.920000000000002      62.040000000000006      78.960000000000008
   286   1      16.920000000000002      63.920000000000002      47.000000000000007
   287   1      15.040000000000006      63.920000000000002       48.88000000000001
   288   1      15.040000000000006      65.799999999999997      50.760000000000012
   289   1      16.920000000000002      63.920000000000002      50.760000000000012
   290   1      16.920000000000002      65.799999999999997       48.88000000000001
   291   1      15.040000000000006      63.920000000000002      52.640000000000001
   292   1      15.040000000000006      65.799999999999997       54.52000000000001
   293   1      16.920000000000002      63.920000000000002       54.52000000000001
   294   1      16.920000000000002      65.799999999999997      52.640000000000001
   295   1      15.040000000000006      63.920000000000002      56.400000000000006
   296   1      15.040000000000006      65.799999999999997      58.280000000000008
   297   1      16.920000000000002      63.920000000000002      58.280000000000008
   298   1      16.920000000000002      65.799999999999997      56.400000000000006
   299   1      15.040000000000006      63.920000000000002      60.160000000000004
   300   1      15.040000000000006      65.799999999999997      62.040000000000006
   301   1      16.920000000000002      63.920000000000002      62.040000000000006
   302   1      16.920000000000002      65.799999999999997      60.160000000000004
   303   1      15.040000000000006      63.920000000000002      63.920000000000002
   304   1      15.040000000000006      65.799999999999997      65.799999999999997
   305   1      16.920000000000002      63.920000000000002      65.799999999999997
   306   1      16.920000000000002      65.799999999999997      63.920000000000002
   307   1      15.040000000000006      63.920000000000002      67.680000000000007
   308   1      15.040000000000006      65.799999999999997      69.560000000000002
   309   1      16.920000000000002      63.920000000000002      69.560000000000002
   310   1      16.920000000000002      65.799999999999997      67.680000000000007
   311   1      15.040000000000006      63.920000000000002      71.439999999999998
   312   1      15.040000000000006      65.799999999999997      73.319999999999993
   313   1      16.920000000000002      63.920000000000002      73.319999999999993
   314   1      16.920000000000002      65.799999999999997      71.439999999999998
   315   1      15.040000000000006      63.920000000000002      75.200000000000003
   316   1      15.040000000000006      65.799999999999997      77.079999999999998
   317   1      16.920000000000002      63.920000000000002      77.079999999999998
   318   1      16.920000000000002      65.799999999999997      75.200000000000003
   319   1      15.040000000000006      63.920000000000002      78.960000000000008
   320   1      16.920000000000002      63.920000000000002      80.840000000000003
   321   1      16.920000000000002      65.799999999999997      78.960000000000008
   322   1      16.920000000000002      67.680000000000007      50.760000000000012
   323   1      15.040000000000006      67.680000000000007      52.640000000000001
   324   1      15.040000000000006      69.560000000000002       54.52000000000001
   325   1      16.920000000000002      67.680000000000007       54.52000000000001
   326   1      16.920000000000002      69.560000000000002      52.640000000000001
   327   1      15.040000000000006      67.680000000000007      56.400000000000006
   328   1      15.040000000000006      69.560000000000002      58.280000000000008
   329   1      16.920000000000002      67.680000000000007      58.280000000000008
   330   1      16.920000000000002      69.560000000000002      56.400000000000006
   331   1      15.040000000000006      67.680000000000007      60.160000000000004
   332   1      15.040000000000006      69.560000000000002      62.040000000000006
   333   1      16.920000000000002      67.680000000000007      62.040000000000006
   334   1      16.920000000000002      69.560000000000002      60.160000000000004
   335   1      15.040000000000006      67.680000000000007      63.920000000000002
   336   1      15.040000000000006      69.560000000000002      65.799999999999997
   337   1      16.920000000000002      67.680000000000007      65.799999999999997
   338   1      16.920000000000002      69.560000000000002      63.920000000000002
   339   1      15.040000000000006      67.680000000000007      67.680000000000007
   340   1      15.040000000000006      69.560000000000002      69.560000000000002
   341   1      16.920000000000002      67.680000000000007      69.560000000000002
   342   1      16.920000000000002      69.560000000000002      67.680000000000007
   343   1      15.040000000000006      67.680000000000007      71.439999999999998
   344   1      15.040000000000006      69.560000000000002      73.319999999999993
   345   1      16.920000000000002      67.680000000000007      73.319999999999993
   346   1      16.920000000000002      69.560000000000002      71.439999999999998
   347   1      15.040000000000006      67.680000000000007      75.200000000000003
   348   1      16.920000000000002      67.680000000000007      77.079999999999998
   349   1      16.920000000000002      69.560000000000002      75.200000000000003
   350   1      16.920000000000002      71.439999999999998       54.52000000000001
   351   1      15.040000000000006      71.439999999999998      56.400000000000006
   352   1      15.040000000000006      73.319999999999993      58.280000000000008
   353   1      16.920000000000002      71.439999999999998      58.280000000000008
   354   1      16.920000000000002      73.319999999999993      56.400000000000006
   355   1      15.040000000000006      71.439999999999998      60.160000000000004
   356   1      15.040000000000006      73.319999999999993      62.040000000000006
   357   1      16.920000000000002      71.439999999999998      62.040000000000006
   358   1      16.920000000000002      73.319999999999993      60.160000000000004