model_files/Au/Au_30000/Au_332/data.Au_332_fcc_30163 (written by ASE) 

30163 	 atoms 
1  atom types
0.0                     138  xlo xhi
0.0                     138  ylo yhi
0.0                     138  zlo zhi


Atoms 

     1   1      2.0400000000000205      67.320000000000022      69.360000000000014
     2   1      2.0400000000000205      69.360000000000014      67.320000000000022
     3   1  1.4210854715202004e-14      69.360000000000014      69.360000000000014
     4   1      2.0400000000000205      69.360000000000014       71.40000000000002
     5   1      2.0400000000000205       71.40000000000002      69.360000000000014
     6   1      6.1200000000000188      63.240000000000023      69.360000000000014
     7   1      4.0800000000000125      67.320000000000022      67.320000000000022
     8   1      6.1200000000000188      65.280000000000015      67.320000000000022
     9   1      6.1200000000000188      67.320000000000022      65.280000000000015
    10   1      4.0800000000000125      65.280000000000015      69.360000000000014
    11   1      4.0800000000000125      67.320000000000022       71.40000000000002
    12   1      6.1200000000000188      65.280000000000015       71.40000000000002
    13   1      6.1200000000000188      67.320000000000022      69.360000000000014
    14   1      6.1200000000000188      67.320000000000022      73.440000000000012
    15   1      6.1200000000000188      69.360000000000014      63.240000000000023
    16   1      4.0800000000000125      69.360000000000014      65.280000000000015
    17   1      4.0800000000000125       71.40000000000002      67.320000000000022
    18   1      6.1200000000000188      69.360000000000014      67.320000000000022
    19   1      6.1200000000000188       71.40000000000002      65.280000000000015
    20   1      4.0800000000000125      69.360000000000014      69.360000000000014
    21   1      4.0800000000000125       71.40000000000002       71.40000000000002
    22   1      6.1200000000000188      69.360000000000014       71.40000000000002
    23   1      6.1200000000000188       71.40000000000002      69.360000000000014
    24   1      4.0800000000000125      69.360000000000014      73.440000000000012
    25   1      6.1200000000000188      69.360000000000014      75.480000000000018
    26   1      6.1200000000000188       71.40000000000002      73.440000000000012
    27   1      6.1200000000000188      73.440000000000012      67.320000000000022
    28   1      4.0800000000000125      73.440000000000012      69.360000000000014
    29   1      6.1200000000000188      73.440000000000012       71.40000000000002
    30   1      6.1200000000000188      75.480000000000018      69.360000000000014
    31   1      10.200000000000017      59.160000000000025      69.360000000000014
    32   1      8.1600000000000179      63.240000000000023      67.320000000000022
    33   1      10.200000000000017      61.200000000000017      67.320000000000022
    34   1      10.200000000000017      63.240000000000023      65.280000000000015
    35   1      8.1600000000000179      61.200000000000017      69.360000000000014
    36   1      8.1600000000000179      63.240000000000023       71.40000000000002
    37   1      10.200000000000017      61.200000000000017       71.40000000000002
    38   1      10.200000000000017      63.240000000000023      69.360000000000014
    39   1      10.200000000000017      63.240000000000023      73.440000000000012
    40   1      8.1600000000000179      67.320000000000022      63.240000000000023
    41   1      10.200000000000017      65.280000000000015      63.240000000000023
    42   1      10.200000000000017      67.320000000000022      61.200000000000017
    43   1      8.1600000000000179      65.280000000000015      65.280000000000015
    44   1      8.1600000000000179      67.320000000000022      67.320000000000022
    45   1      10.200000000000017      65.280000000000015      67.320000000000022
    46   1      10.200000000000017      67.320000000000022      65.280000000000015
    47   1      8.1600000000000179      65.280000000000015      69.360000000000014
    48   1      8.1600000000000179      67.320000000000022       71.40000000000002
    49   1      10.200000000000017      65.280000000000015       71.40000000000002
    50   1      10.200000000000017      67.320000000000022      69.360000000000014
    51   1      8.1600000000000179      65.280000000000015      73.440000000000012
    52   1      8.1600000000000179      67.320000000000022      75.480000000000018
    53   1      10.200000000000017      65.280000000000015      75.480000000000018
    54   1      10.200000000000017      67.320000000000022      73.440000000000012
    55   1      10.200000000000017      67.320000000000022      77.520000000000024
    56   1      10.200000000000017      69.360000000000014      59.160000000000025
    57   1      8.1600000000000179      69.360000000000014      61.200000000000017
    58   1      8.1600000000000179       71.40000000000002      63.240000000000023
    59   1      10.200000000000017      69.360000000000014      63.240000000000023
    60   1      10.200000000000017       71.40000000000002      61.200000000000017
    61   1      8.1600000000000179      69.360000000000014      65.280000000000015
    62   1      8.1600000000000179       71.40000000000002      67.320000000000022
    63   1      10.200000000000017      69.360000000000014      67.320000000000022
    64   1      10.200000000000017       71.40000000000002      65.280000000000015
    65   1      8.1600000000000179      69.360000000000014      69.360000000000014
    66   1      8.1600000000000179       71.40000000000002       71.40000000000002
    67   1      10.200000000000017      69.360000000000014       71.40000000000002
    68   1      10.200000000000017       71.40000000000002      69.360000000000014
    69   1      8.1600000000000179      69.360000000000014      73.440000000000012
    70   1      8.1600000000000179       71.40000000000002      75.480000000000018
    71   1      10.200000000000017      69.360000000000014      75.480000000000018
    72   1      10.200000000000017       71.40000000000002      73.440000000000012
    73   1      8.1600000000000179      69.360000000000014      77.520000000000024
    74   1      10.200000000000017      69.360000000000014      79.560000000000016
    75   1      10.200000000000017       71.40000000000002      77.520000000000024
    76   1      10.200000000000017      73.440000000000012      63.240000000000023
    77   1      8.1600000000000179      73.440000000000012      65.280000000000015
    78   1      8.1600000000000179      75.480000000000018      67.320000000000022
    79   1      10.200000000000017      73.440000000000012      67.320000000000022
    80   1      10.200000000000017      75.480000000000018      65.280000000000015
    81   1      8.1600000000000179      73.440000000000012      69.360000000000014
    82   1      8.1600000000000179      75.480000000000018       71.40000000000002
    83   1      10.200000000000017      73.440000000000012       71.40000000000002
    84   1      10.200000000000017      75.480000000000018      69.360000000000014
    85   1      8.1600000000000179      73.440000000000012      73.440000000000012
    86   1      10.200000000000017      73.440000000000012      75.480000000000018
    87   1      10.200000000000017      75.480000000000018      73.440000000000012
    88   1      10.200000000000017      77.520000000000024      67.320000000000022
    89   1      8.1600000000000179      77.520000000000024      69.360000000000014
    90   1      10.200000000000017      77.520000000000024       71.40000000000002
    91   1      10.200000000000017      79.560000000000016      69.360000000000014
    92   1      14.280000000000015       55.08000000000002      69.360000000000014
    93   1      12.240000000000016      59.160000000000025      67.320000000000022
    94   1      14.280000000000015      57.120000000000019      67.320000000000022
    95   1      14.280000000000015      59.160000000000025      65.280000000000015
    96   1      12.240000000000016      57.120000000000019      69.360000000000014
    97   1      12.240000000000016      59.160000000000025       71.40000000000002
    98   1      14.280000000000015      57.120000000000019       71.40000000000002
    99   1      14.280000000000015      59.160000000000025      69.360000000000014
   100   1      14.280000000000015      59.160000000000025      73.440000000000012
   101   1      12.240000000000016      63.240000000000023      63.240000000000023
   102   1      14.280000000000015      61.200000000000017      63.240000000000023
   103   1      14.280000000000015      63.240000000000023      61.200000000000017
   104   1      12.240000000000016      61.200000000000017      65.280000000000015
   105   1      12.240000000000016      63.240000000000023      67.320000000000022
   106   1      14.280000000000015      61.200000000000017      67.320000000000022
   107   1      14.280000000000015      63.240000000000023      65.280000000000015
   108   1      12.240000000000016      61.200000000000017      69.360000000000014
   109   1      12.240000000000016      63.240000000000023       71.40000000000002
   110   1      14.280000000000015      61.200000000000017       71.40000000000002
   111   1      14.280000000000015      63.240000000000023      69.360000000000014
   112   1      12.240000000000016      61.200000000000017      73.440000000000012
   113   1      12.240000000000016      63.240000000000023      75.480000000000018
   114   1      14.280000000000015      61.200000000000017      75.480000000000018
   115   1      14.280000000000015      63.240000000000023      73.440000000000012
   116   1      14.280000000000015      63.240000000000023      77.520000000000024
   117   1      12.240000000000016      67.320000000000022      59.160000000000025
   118   1      14.280000000000015      65.280000000000015      59.160000000000025
   119   1      14.280000000000015      67.320000000000022      57.120000000000019
   120   1      12.240000000000016      65.280000000000015      61.200000000000017
   121   1      12.240000000000016      67.320000000000022      63.240000000000023
   122   1      14.280000000000015      65.280000000000015      63.240000000000023
   123   1      14.280000000000015      67.320000000000022      61.200000000000017
   124   1      12.240000000000016      65.280000000000015      65.280000000000015
   125   1      12.240000000000016      67.320000000000022      67.320000000000022
   126   1      14.280000000000015      65.280000000000015      67.320000000000022
   127   1      14.280000000000015      67.320000000000022      65.280000000000015
   128   1      12.240000000000016      65.280000000000015      69.360000000000014
   129   1      12.240000000000016      67.320000000000022       71.40000000000002
   130   1      14.280000000000015      65.280000000000015       71.40000000000002
   131   1      14.280000000000015      67.320000000000022      69.360000000000014
   132   1      12.240000000000016      65.280000000000015      73.440000000000012
   133   1      12.240000000000016      67.320000000000022      75.480000000000018
   134   1      14.280000000000015      65.280000000000015      75.480000000000018
   135   1      14.280000000000015      67.320000000000022      73.440000000000012
   136   1      12.240000000000016      65.280000000000015      77.520000000000024
   137   1      12.240000000000016      67.320000000000022      79.560000000000016
   138   1      14.280000000000015      65.280000000000015      79.560000000000016
   139   1      14.280000000000015      67.320000000000022      77.520000000000024
   140   1      14.280000000000015      67.320000000000022      81.600000000000023
   141   1      14.280000000000015      69.360000000000014       55.08000000000002
   142   1      12.240000000000016      69.360000000000014      57.120000000000019
   143   1      12.240000000000016       71.40000000000002      59.160000000000025
   144   1      14.280000000000015      69.360000000000014      59.160000000000025
   145   1      14.280000000000015       71.40000000000002      57.120000000000019
   146   1      12.240000000000016      69.360000000000014      61.200000000000017
   147   1      12.240000000000016       71.40000000000002      63.240000000000023
   148   1      14.280000000000015      69.360000000000014      63.240000000000023
   149   1      14.280000000000015       71.40000000000002      61.200000000000017
   150   1      12.240000000000016      69.360000000000014      65.280000000000015
   151   1      12.240000000000016       71.40000000000002      67.320000000000022
   152   1      14.280000000000015      69.360000000000014      67.320000000000022
   153   1      14.280000000000015       71.40000000000002      65.280000000000015
   154   1      12.240000000000016      69.360000000000014      69.360000000000014
   155   1      12.240000000000016       71.40000000000002       71.40000000000002
   156   1      14.280000000000015      69.360000000000014       71.40000000000002
   157   1      14.280000000000015       71.40000000000002      69.360000000000014
   158   1      12.240000000000016      69.360000000000014      73.440000000000012
   159   1      12.240000000000016       71.40000000000002      75.480000000000018
   160   1      14.280000000000015      69.360000000000014      75.480000000000018
   161   1      14.280000000000015       71.40000000000002      73.440000000000012
   162   1      12.240000000000016      69.360000000000014      77.520000000000024
   163   1      12.240000000000016       71.40000000000002      79.560000000000016
   164   1      14.280000000000015      69.360000000000014      79.560000000000016
   165   1      14.280000000000015       71.40000000000002      77.520000000000024
   166   1      12.240000000000016      69.360000000000014      81.600000000000023
   167   1      14.280000000000015      69.360000000000014      83.640000000000029
   168   1      14.280000000000015       71.40000000000002      81.600000000000023
   169   1      14.280000000000015      73.440000000000012      59.160000000000025
   170   1      12.240000000000016      73.440000000000012      61.200000000000017
   171   1      12.240000000000016      75.480000000000018      63.240000000000023
   172   1      14.280000000000015      73.440000000000012      63.240000000000023
   173   1      14.280000000000015      75.480000000000018      61.200000000000017
   174   1      12.240000000000016      73.440000000000012      65.280000000000015
   175   1      12.240000000000016      75.480000000000018      67.320000000000022
   176   1      14.280000000000015      73.440000000000012      67.320000000000022
   177   1      14.280000000000015      75.480000000000018      65.280000000000015
   178   1      12.240000000000016      73.440000000000012      69.360000000000014
   179   1      12.240000000000016      75.480000000000018       71.40000000000002
   180   1      14.280000000000015      73.440000000000012       71.40000000000002
   181   1      14.280000000000015      75.480000000000018      69.360000000000014
   182   1      12.240000000000016      73.440000000000012      73.440000000000012
   183   1      12.240000000000016      75.480000000000018      75.480000000000018
   184   1      14.280000000000015      73.440000000000012      75.480000000000018
   185   1      14.280000000000015      75.480000000000018      73.440000000000012
   186   1      12.240000000000016      73.440000000000012      77.520000000000024
   187   1      14.280000000000015      73.440000000000012      79.560000000000016
   188   1      14.280000000000015      75.480000000000018      77.520000000000024
   189   1      14.280000000000015      77.520000000000024      63.240000000000023
   190   1      12.240000000000016      77.520000000000024      65.280000000000015
   191   1      12.240000000000016      79.560000000000016      67.320000000000022
   192   1      14.280000000000015      77.520000000000024      67.320000000000022
   193   1      14.280000000000015      79.560000000000016      65.280000000000015
   194   1      12.240000000000016      77.520000000000024      69.360000000000014
   195   1      12.240000000000016      79.560000000000016       71.40000000000002
   196   1      14.280000000000015      77.520000000000024       71.40000000000002
   197   1      14.280000000000015      79.560000000000016      69.360000000000014
   198   1      12.240000000000016      77.520000000000024      73.440000000000012
   199   1      14.280000000000015      77.520000000000024      75.480000000000018
   200   1      14.280000000000015      79.560000000000016      73.440000000000012
   201   1      14.280000000000015      81.600000000000023      67.320000000000022
   202   1      12.240000000000016      81.600000000000023      69.360000000000014
   203   1      14.280000000000015      81.600000000000023       71.40000000000002
   204   1      14.280000000000015      83.640000000000029      69.360000000000014
   205   1      18.360000000000014      51.000000000000014      69.360000000000014
   206   1      16.320000000000014       55.08000000000002      67.320000000000022
   207   1      18.360000000000014       53.04000000000002      67.320000000000022
   208   1      18.360000000000014       55.08000000000002      65.280000000000015
   209   1      16.320000000000014       53.04000000000002      69.360000000000014
   210   1      16.320000000000014       55.08000000000002       71.40000000000002
   211   1      18.360000000000014       53.04000000000002       71.40000000000002
   212   1      18.360000000000014       55.08000000000002      69.360000000000014
   213   1      18.360000000000014       55.08000000000002      73.440000000000012
   214   1      16.320000000000014      59.160000000000025      63.240000000000023
   215   1      18.360000000000014      57.120000000000019      63.240000000000023
   216   1      18.360000000000014      59.160000000000025      61.200000000000017
   217   1      16.320000000000014      57.120000000000019      65.280000000000015
   218   1      16.320000000000014      59.160000000000025      67.320000000000022
   219   1      18.360000000000014      57.120000000000019      67.320000000000022
   220   1      18.360000000000014      59.160000000000025      65.280000000000015
   221   1      16.320000000000014      57.120000000000019      69.360000000000014
   222   1      16.320000000000014      59.160000000000025       71.40000000000002
   223   1      18.360000000000014      57.120000000000019       71.40000000000002
   224   1      18.360000000000014      59.160000000000025      69.360000000000014
   225   1      16.320000000000014      57.120000000000019      73.440000000000012
   226   1      16.320000000000014      59.160000000000025      75.480000000000018
   227   1      18.360000000000014      57.120000000000019      75.480000000000018
   228   1      18.360000000000014      59.160000000000025      73.440000000000012
   229   1      18.360000000000014      59.160000000000025      77.520000000000024
   230   1      16.320000000000014      63.240000000000023      59.160000000000025
   231   1      18.360000000000014      61.200000000000017      59.160000000000025
   232   1      18.360000000000014      63.240000000000023      57.120000000000019
   233   1      16.320000000000014      61.200000000000017      61.200000000000017
   234   1      16.320000000000014      63.240000000000023      63.240000000000023
   235   1      18.360000000000014      61.200000000000017      63.240000000000023
   236   1      18.360000000000014      63.240000000000023      61.200000000000017
   237   1      16.320000000000014      61.200000000000017      65.280000000000015
   238   1      16.320000000000014      63.240000000000023      67.320000000000022
   239   1      18.360000000000014      61.200000000000017      67.320000000000022
   240   1      18.360000000000014      63.240000000000023      65.280000000000015
   241   1      16.320000000000014      61.200000000000017      69.360000000000014
   242   1      16.320000000000014      63.240000000000023       71.40000000000002
   243   1      18.360000000000014      61.200000000000017       71.40000000000002
   244   1      18.360000000000014      63.240000000000023      69.360000000000014
   245   1      16.320000000000014      61.200000000000017      73.440000000000012
   246   1      16.320000000000014      63.240000000000023      75.480000000000018
   247   1      18.360000000000014      61.200000000000017      75.480000000000018
   248   1      18.360000000000014      63.240000000000023      73.440000000000012
   249   1      16.320000000000014      61.200000000000017      77.520000000000024
   250   1      16.320000000000014      63.240000000000023      79.560000000000016
   251   1      18.360000000000014      61.200000000000017      79.560000000000016
   252   1      18.360000000000014      63.240000000000023      77.520000000000024
   253   1      18.360000000000014      63.240000000000023      81.600000000000023
   254   1      16.320000000000014      67.320000000000022       55.08000000000002
   255   1      18.360000000000014      65.280000000000015       55.08000000000002
   256   1      18.360000000000014      67.320000000000022       53.04000000000002
   257   1      16.320000000000014      65.280000000000015      57.120000000000019
   258   1      16.320000000000014      67.320000000000022      59.160000000000025
   259   1      18.360000000000014      65.280000000000015      59.160000000000025
   260   1      18.360000000000014      67.320000000000022      57.120000000000019
   261   1      16.320000000000014      65.280000000000015      61.200000000000017
   262   1      16.320000000000014      67.320000000000022      63.240000000000023
   263   1      18.360000000000014      65.280000000000015      63.240000000000023
   264   1      18.360000000000014      67.320000000000022      61.200000000000017
   265   1      16.320000000000014      65.280000000000015      65.280000000000015
   266   1      16.320000000000014      67.320000000000022      67.320000000000022
   267   1      18.360000000000014      65.280000000000015      67.320000000000022
   268   1      18.360000000000014      67.320000000000022      65.280000000000015
   269   1      16.320000000000014      65.280000000000015      69.360000000000014
   270   1      16.320000000000014      67.320000000000022       71.40000000000002
   271   1      18.360000000000014      65.280000000000015       71.40000000000002
   272   1      18.360000000000014      67.320000000000022      69.360000000000014
   273   1      16.320000000000014      65.280000000000015      73.440000000000012
   274   1      16.320000000000014      67.320000000000022      75.480000000000018
   275   1      18.360000000000014      65.280000000000015      75.480000000000018
   276   1      18.360000000000014      67.320000000000022      73.440000000000012
   277   1      16.320000000000014      65.280000000000015      77.520000000000024
   278   1      16.320000000000014      67.320000000000022      79.560000000000016
   279   1      18.360000000000014      65.280000000000015      79.560000000000016
   280   1      18.360000000000014      67.320000000000022      77.520000000000024
   281   1      16.320000000000014      65.280000000000015      81.600000000000023
   282   1      16.320000000000014      67.320000000000022      83.640000000000029
   283   1      18.360000000000014      65.280000000000015      83.640000000000029
   284   1      18.360000000000014      67.320000000000022      81.600000000000023
   285   1      18.360000000000014      67.320000000000022      85.680000000000021
   286   1      18.360000000000014      69.360000000000014      51.000000000000014
   287   1      16.320000000000014      69.360000000000014       53.04000000000002
   288   1      16.320000000000014       71.40000000000002       55.08000000000002
   289   1      18.360000000000014      69.360000000000014       55.08000000000002
   290   1      18.360000000000014       71.40000000000002       53.04000000000002
   291   1      16.320000000000014      69.360000000000014      57.120000000000019
   292   1      16.320000000000014       71.40000000000002      59.160000000000025
   293   1      18.360000000000014      69.360000000000014      59.160000000000025
   294   1      18.360000000000014       71.40000000000002      57.120000000000019
   295   1      16.320000000000014      69.360000000000014      61.200000000000017
   296   1      16.320000000000014       71.40000000000002      63.240000000000023
   297   1      18.360000000000014      69.360000000000014      63.240000000000023
   298   1      18.360000000000014       71.40000000000002      61.200000000000017
   299   1      16.320000000000014      69.360000000000014      65.280000000000015
   300   1      16.320000000000014       71.40000000000002      67.320000000000022
   301   1      18.360000000000014      69.360000000000014      67.320000000000022
   302   1      18.360000000000014       71.40000000000002      65.280000000000015
   303   1      16.320000000000014      69.360000000000014      69.360000000000014
   304   1      16.320000000000014       71.40000000000002       71.40000000000002
   305   1      18.360000000000014      69.360000000000014       71.40000000000002
   306   1      18.360000000000014       71.40000000000002      69.360000000000014
   307   1      16.320000000000014      69.360000000000014      73.440000000000012
   308   1      16.320000000000014       71.40000000000002      75.480000000000018
   309   1      18.360000000000014      69.360000000000014      75.480000000000018
   310   1      18.360000000000014       71.40000000000002      73.440000000000012
   311   1      16.320000000000014      69.360000000000014      77.520000000000024
   312   1      16.320000000000014       71.40000000000002      79.560000000000016
   313   1      18.360000000000014      69.360000000000014      79.560000000000016
   314   1      18.360000000000014       71.40000000000002      77.520000000000024
   315   1      16.320000000000014      69.360000000000014      81.600000000000023
   316   1      16.320000000000014       71.40000000000002      83.640000000000029
   317   1      18.360000000000014      69.360000000000014      83.640000000000029
   318   1      18.360000000000014       71.40000000000002      81.600000000000023
   319   1      16.320000000000014      69.360000000000014      85.680000000000021
   320   1      18.360000000000014      69.360000000000014      87.720000000000041
   321   1      18.360000000000014       71.40000000000002      85.680000000000021
   322   1      18.360000000000014      73.440000000000012       55.08000000000002
   323   1      16.320000000000014      73.440000000000012      57.120000000000019
   324   1      16.320000000000014      75.480000000000018      59.160000000000025
   325   1      18.360000000000014      73.440000000000012      59.160000000000025
   326   1      18.360000000000014      75.480000000000018      57.120000000000019
   327   1      16.320000000000014      73.440000000000012      61.200000000000017
   328   1      16.320000000000014      75.480000000000018      63.240000000000023
   329   1      18.360000000000014      73.440000000000012      63.240000000000023
   330   1      18.360000000000014      75.480000000000018      61.200000000000017
   331   1      16.320000000000014      73.440000000000012      65.280000000000015
   332   1      16.320000000000014      75.480000000000018      67.320000000000022
   333   1      18.360000000000014      73.440000000000012      67.320000000000022
   334   1      18.360000000000014      75.480000000000018      65.280000000000015
   335   1      16.320000000000014      73.440000000000012      69.360000000000014
   336   1      16.320000000000014      75.480000000000018       71.40000000000002
   337   1      18.360000000000014      73.440000000000012       71.40000000000002
   338   1      18.360000000000014      75.480000000000018      69.360000000000014
   339   1      16.320000000000014      73.440000000000012      73.440000000000012
   340   1      16.320000000000014      75.480000000000018      75.480000000000018
   341   1      18.360000000000014      73.440000000000012      75.480000000000018
   342   1      18.360000000000014      75.480000000000018      73.440000000000012
   343   1      16.320000000000014      73.440000000000012      77.520000000000024
   344   1      16.320000000000014      75.480000000000018      79.560000000000016
   345   1      18.360000000000014      73.440000000000012      79.560000000000016
   346   1      18.360000000000014      75.480000000000018      77.520000000000024
   347   1      16.320000000000014      73.440000000000012      81.600000000000023
   348   1      18.360000000000014      73.440000000000012      83.640000000000029
   349   1      18.360000000000014      75.480000000000018      81.600000000000023
   350   1      18.360000000000014      77.520000000000024      59.160000000000025
   351   1      16.320000000000014      77.520000000000024      61.200000000000017
   352   1      16.320000000000014      79.560000000000016      63.240000000000023
   353   1      18.360000000000014      77.520000000000024      63.240000000000023
   354   1      18.360000000000014      79.560000000000016      61.200000000000017
   355   1      16.320000000000014      77.520000000000024      65.280000000000015
   356   1      16.320000000000014      79.560000000000016      67.320000000000022
   357   1      18.360000000000014      77.520000000000024      67.320000000000022
   358   1      18.360000000000014      79.560000000000016      65.280000000000015