model_files/PdNi/PdNi_30000/PdNi_553/PdNi_553_fcc_29881_temp.data (written by ASE) 

29881 	 atoms 
2  atom types
0.0                     121  xlo xhi
0.0                     121  ylo yhi
0.0                     121  zlo zhi


Atoms 

     1   1      120.99999999999999       57.73749999999999       57.73749999999999
     2   1      1.8624999999999901      55.874999999999993       57.73749999999999
     3   1      1.8624999999999901       57.73749999999999      55.874999999999993
     4   1      120.99999999999999       57.73749999999999      61.462499999999999
     5   1      1.8624999999999901      55.874999999999993      61.462499999999999
     6   1      1.8624999999999901       57.73749999999999      59.599999999999994
     7   1      1.8624999999999901       57.73749999999999      63.324999999999996
     8   1      120.99999999999999      61.462499999999999       57.73749999999999
     9   1      1.8624999999999901      59.599999999999994       57.73749999999999
    10   1      1.8624999999999901      61.462499999999999      55.874999999999993
    11   1      120.99999999999999      59.599999999999994      59.599999999999994
    12   1      120.99999999999999      61.462499999999999      61.462499999999999
    13   1      1.8624999999999901      59.599999999999994      61.462499999999999
    14   1      1.8624999999999901      61.462499999999999      59.599999999999994
    15   1      1.8624999999999901      61.462499999999999      63.324999999999996
    16   1      1.8624999999999901      63.324999999999996       57.73749999999999
    17   1      1.8624999999999901      63.324999999999996      61.462499999999999
    18   1      3.7249999999999948      54.012499999999989       57.73749999999999
    19   1      5.5874999999999915      52.149999999999991       57.73749999999999
    20   1      5.5874999999999915      54.012499999999989      55.874999999999993
    21   1      3.7249999999999948      54.012499999999989      61.462499999999999
    22   1      5.5874999999999915      52.149999999999991      61.462499999999999
    23   1      5.5874999999999915      54.012499999999989      59.599999999999994
    24   1      5.5874999999999915      54.012499999999989      63.324999999999996
    25   1      3.7249999999999948       57.73749999999999      54.012499999999989
    26   1      5.5874999999999915      55.874999999999993      54.012499999999989
    27   1      5.5874999999999915       57.73749999999999      52.149999999999991
    28   1      3.7249999999999948      55.874999999999993      55.874999999999993
    29   1      3.7249999999999948       57.73749999999999       57.73749999999999
    30   1      5.5874999999999915      55.874999999999993       57.73749999999999
    31   1      5.5874999999999915       57.73749999999999      55.874999999999993
    32   1      3.7249999999999948      55.874999999999993      59.599999999999994
    33   1      3.7249999999999948       57.73749999999999      61.462499999999999
    34   1      5.5874999999999915      55.874999999999993      61.462499999999999
    35   1      5.5874999999999915       57.73749999999999      59.599999999999994
    36   1      3.7249999999999948      55.874999999999993      63.324999999999996
    37   1      3.7249999999999948       57.73749999999999      65.187499999999986
    38   1      5.5874999999999915      55.874999999999993      65.187499999999986
    39   1      5.5874999999999915       57.73749999999999      63.324999999999996
    40   1      5.5874999999999915       57.73749999999999      67.049999999999997
    41   1      3.7249999999999948      61.462499999999999      54.012499999999989
    42   1      5.5874999999999915      59.599999999999994      54.012499999999989
    43   1      5.5874999999999915      61.462499999999999      52.149999999999991
    44   1      3.7249999999999948      59.599999999999994      55.874999999999993
    45   1      3.7249999999999948      61.462499999999999       57.73749999999999
    46   1      5.5874999999999915      59.599999999999994       57.73749999999999
    47   1      5.5874999999999915      61.462499999999999      55.874999999999993
    48   1      3.7249999999999948      59.599999999999994      59.599999999999994
    49   1      3.7249999999999948      61.462499999999999      61.462499999999999
    50   1      5.5874999999999915      59.599999999999994      61.462499999999999
    51   1      5.5874999999999915      61.462499999999999      59.599999999999994
    52   1      3.7249999999999948      59.599999999999994      63.324999999999996
    53   1      3.7249999999999948      61.462499999999999      65.187499999999986
    54   1      5.5874999999999915      59.599999999999994      65.187499999999986
    55   1      5.5874999999999915      61.462499999999999      63.324999999999996
    56   1      5.5874999999999915      61.462499999999999      67.049999999999997
    57   1      5.5874999999999915      63.324999999999996      54.012499999999989
    58   1      3.7249999999999948      63.324999999999996      55.874999999999993
    59   1      3.7249999999999948      65.187499999999986       57.73749999999999
    60   1      5.5874999999999915      63.324999999999996       57.73749999999999
    61   1      5.5874999999999915      65.187499999999986      55.874999999999993
    62   1      3.7249999999999948      63.324999999999996      59.599999999999994
    63   1      3.7249999999999948      65.187499999999986      61.462499999999999
    64   1      5.5874999999999915      63.324999999999996      61.462499999999999
    65   1      5.5874999999999915      65.187499999999986      59.599999999999994
    66   1      3.7249999999999948      63.324999999999996      63.324999999999996
    67   1      5.5874999999999915      63.324999999999996      65.187499999999986
    68   1      5.5874999999999915      65.187499999999986      63.324999999999996
    69   1      5.5874999999999915      67.049999999999997       57.73749999999999
    70   1      5.5874999999999915      67.049999999999997      61.462499999999999
    71   1      7.4499999999999895      50.287499999999987       57.73749999999999
    72   1      9.3124999999999929       48.42499999999999       57.73749999999999
    73   1      9.3124999999999929      50.287499999999987      55.874999999999993
    74   1      7.4499999999999895      50.287499999999987      61.462499999999999
    75   1      9.3124999999999929       48.42499999999999      61.462499999999999
    76   1      9.3124999999999929      50.287499999999987      59.599999999999994
    77   1      9.3124999999999929      50.287499999999987      63.324999999999996
    78   1      7.4499999999999895      54.012499999999989      54.012499999999989
    79   1      9.3124999999999929      52.149999999999991      54.012499999999989
    80   1      9.3124999999999929      54.012499999999989      52.149999999999991
    81   1      7.4499999999999895      52.149999999999991      55.874999999999993
    82   1      7.4499999999999895      54.012499999999989       57.73749999999999
    83   1      9.3124999999999929      52.149999999999991       57.73749999999999
    84   1      9.3124999999999929      54.012499999999989      55.874999999999993
    85   1      7.4499999999999895      52.149999999999991      59.599999999999994
    86   1      7.4499999999999895      54.012499999999989      61.462499999999999
    87   1      9.3124999999999929      52.149999999999991      61.462499999999999
    88   1      9.3124999999999929      54.012499999999989      59.599999999999994
    89   1      7.4499999999999895      52.149999999999991      63.324999999999996
    90   1      7.4499999999999895      54.012499999999989      65.187499999999986
    91   1      9.3124999999999929      52.149999999999991      65.187499999999986
    92   1      9.3124999999999929      54.012499999999989      63.324999999999996
    93   1      9.3124999999999929      54.012499999999989      67.049999999999997
    94   1      7.4499999999999895       57.73749999999999      50.287499999999987
    95   1      9.3124999999999929      55.874999999999993      50.287499999999987
    96   1      9.3124999999999929       57.73749999999999       48.42499999999999
    97   1      7.4499999999999895      55.874999999999993      52.149999999999991
    98   1      7.4499999999999895       57.73749999999999      54.012499999999989
    99   1      9.3124999999999929      55.874999999999993      54.012499999999989
   100   1      9.3124999999999929       57.73749999999999      52.149999999999991
   101   1      7.4499999999999895      55.874999999999993      55.874999999999993
   102   1      7.4499999999999895       57.73749999999999       57.73749999999999
   103   1      9.3124999999999929      55.874999999999993       57.73749999999999
   104   1      9.3124999999999929       57.73749999999999      55.874999999999993
   105   1      7.4499999999999895      55.874999999999993      59.599999999999994
   106   1      7.4499999999999895       57.73749999999999      61.462499999999999
   107   1      9.3124999999999929      55.874999999999993      61.462499999999999
   108   1      9.3124999999999929       57.73749999999999      59.599999999999994
   109   1      7.4499999999999895      55.874999999999993      63.324999999999996
   110   1      7.4499999999999895       57.73749999999999      65.187499999999986
   111   1      9.3124999999999929      55.874999999999993      65.187499999999986
   112   1      9.3124999999999929       57.73749999999999      63.324999999999996
   113   1      7.4499999999999895      55.874999999999993      67.049999999999997
   114   1      7.4499999999999895       57.73749999999999      68.912499999999994
   115   1      9.3124999999999929      55.874999999999993      68.912499999999994
   116   1      9.3124999999999929       57.73749999999999      67.049999999999997
   117   1      9.3124999999999929       57.73749999999999      70.775000000000006
   118   1      7.4499999999999895      61.462499999999999      50.287499999999987
   119   1      9.3124999999999929      59.599999999999994      50.287499999999987
   120   1      9.3124999999999929      61.462499999999999       48.42499999999999
   121   1      7.4499999999999895      59.599999999999994      52.149999999999991
   122   1      7.4499999999999895      61.462499999999999      54.012499999999989
   123   1      9.3124999999999929      59.599999999999994      54.012499999999989
   124   1      9.3124999999999929      61.462499999999999      52.149999999999991
   125   1      7.4499999999999895      59.599999999999994      55.874999999999993
   126   1      7.4499999999999895      61.462499999999999       57.73749999999999
   127   1      9.3124999999999929      59.599999999999994       57.73749999999999
   128   1      9.3124999999999929      61.462499999999999      55.874999999999993
   129   1      7.4499999999999895      59.599999999999994      59.599999999999994
   130   1      7.4499999999999895      61.462499999999999      61.462499999999999
   131   1      9.3124999999999929      59.599999999999994      61.462499999999999
   132   1      9.3124999999999929      61.462499999999999      59.599999999999994
   133   1      7.4499999999999895      59.599999999999994      63.324999999999996
   134   1      7.4499999999999895      61.462499999999999      65.187499999999986
   135   1      9.3124999999999929      59.599999999999994      65.187499999999986
   136   1      9.3124999999999929      61.462499999999999      63.324999999999996
   137   1      7.4499999999999895      59.599999999999994      67.049999999999997
   138   1      7.4499999999999895      61.462499999999999      68.912499999999994
   139   1      9.3124999999999929      59.599999999999994      68.912499999999994
   140   1      9.3124999999999929      61.462499999999999      67.049999999999997
   141   1      9.3124999999999929      61.462499999999999      70.775000000000006
   142   1      9.3124999999999929      63.324999999999996      50.287499999999987
   143   1      7.4499999999999895      63.324999999999996      52.149999999999991
   144   1      7.4499999999999895      65.187499999999986      54.012499999999989
   145   1      9.3124999999999929      63.324999999999996      54.012499999999989
   146   1      9.3124999999999929      65.187499999999986      52.149999999999991
   147   1      7.4499999999999895      63.324999999999996      55.874999999999993
   148   1      7.4499999999999895      65.187499999999986       57.73749999999999
   149   1      9.3124999999999929      63.324999999999996       57.73749999999999
   150   1      9.3124999999999929      65.187499999999986      55.874999999999993
   151   1      7.4499999999999895      63.324999999999996      59.599999999999994
   152   1      7.4499999999999895      65.187499999999986      61.462499999999999
   153   1      9.3124999999999929      63.324999999999996      61.462499999999999
   154   1      9.3124999999999929      65.187499999999986      59.599999999999994
   155   1      7.4499999999999895      63.324999999999996      63.324999999999996
   156   1      7.4499999999999895      65.187499999999986      65.187499999999986
   157   1      9.3124999999999929      63.324999999999996      65.187499999999986
   158   1      9.3124999999999929      65.187499999999986      63.324999999999996
   159   1      7.4499999999999895      63.324999999999996      67.049999999999997
   160   1      9.3124999999999929      63.324999999999996      68.912499999999994
   161   1      9.3124999999999929      65.187499999999986      67.049999999999997
   162   1      9.3124999999999929      67.049999999999997      54.012499999999989
   163   1      7.4499999999999895      67.049999999999997      55.874999999999993
   164   1      7.4499999999999895      68.912499999999994       57.73749999999999
   165   1      9.3124999999999929      67.049999999999997       57.73749999999999
   166   1      9.3124999999999929      68.912499999999994      55.874999999999993
   167   1      7.4499999999999895      67.049999999999997      59.599999999999994
   168   1      7.4499999999999895      68.912499999999994      61.462499999999999
   169   1      9.3124999999999929      67.049999999999997      61.462499999999999
   170   1      9.3124999999999929      68.912499999999994      59.599999999999994
   171   1      7.4499999999999895      67.049999999999997      63.324999999999996
   172   1      9.3124999999999929      67.049999999999997      65.187499999999986
   173   1      9.3124999999999929      68.912499999999994      63.324999999999996
   174   1      9.3124999999999929      70.775000000000006       57.73749999999999
   175   1      9.3124999999999929      70.775000000000006      61.462499999999999
   176   1       11.17499999999999      46.562499999999993       57.73749999999999
   177   1      13.037499999999994      44.700000000000003       57.73749999999999
   178   1      13.037499999999994      46.562499999999993      55.874999999999993
   179   1       11.17499999999999      46.562499999999993      61.462499999999999
   180   1      13.037499999999994      44.700000000000003      61.462499999999999
   181   1      13.037499999999994      46.562499999999993      59.599999999999994
   182   1      13.037499999999994      46.562499999999993      63.324999999999996
   183   1       11.17499999999999      50.287499999999987      54.012499999999989
   184   1      13.037499999999994       48.42499999999999      54.012499999999989
   185   1      13.037499999999994      50.287499999999987      52.149999999999991
   186   1       11.17499999999999       48.42499999999999      55.874999999999993
   187   1       11.17499999999999      50.287499999999987       57.73749999999999
   188   1      13.037499999999994       48.42499999999999       57.73749999999999
   189   1      13.037499999999994      50.287499999999987      55.874999999999993
   190   1       11.17499999999999       48.42499999999999      59.599999999999994
   191   1       11.17499999999999      50.287499999999987      61.462499999999999
   192   1      13.037499999999994       48.42499999999999      61.462499999999999
   193   1      13.037499999999994      50.287499999999987      59.599999999999994
   194   1       11.17499999999999       48.42499999999999      63.324999999999996
   195   1       11.17499999999999      50.287499999999987      65.187499999999986
   196   1      13.037499999999994       48.42499999999999      65.187499999999986
   197   1      13.037499999999994      50.287499999999987      63.324999999999996
   198   1      13.037499999999994      50.287499999999987      67.049999999999997
   199   1       11.17499999999999      54.012499999999989      50.287499999999987
   200   1      13.037499999999994      52.149999999999991      50.287499999999987
   201   1      13.037499999999994      54.012499999999989       48.42499999999999
   202   1       11.17499999999999      52.149999999999991      52.149999999999991
   203   1       11.17499999999999      54.012499999999989      54.012499999999989
   204   1      13.037499999999994      52.149999999999991      54.012499999999989
   205   1      13.037499999999994      54.012499999999989      52.149999999999991
   206   1       11.17499999999999      52.149999999999991      55.874999999999993
   207   1       11.17499999999999      54.012499999999989       57.73749999999999
   208   1      13.037499999999994      52.149999999999991       57.73749999999999
   209   1      13.037499999999994      54.012499999999989      55.874999999999993
   210   1       11.17499999999999      52.149999999999991      59.599999999999994
   211   1       11.17499999999999      54.012499999999989      61.462499999999999
   212   1      13.037499999999994      52.149999999999991      61.462499999999999
   213   1      13.037499999999994      54.012499999999989      59.599999999999994
   214   1       11.17499999999999      52.149999999999991      63.324999999999996
   215   1       11.17499999999999      54.012499999999989      65.187499999999986
   216   1      13.037499999999994      52.149999999999991      65.187499999999986
   217   1      13.037499999999994      54.012499999999989      63.324999999999996
   218   1       11.17499999999999      52.149999999999991      67.049999999999997
   219   1       11.17499999999999      54.012499999999989      68.912499999999994
   220   1      13.037499999999994      52.149999999999991      68.912499999999994
   221   1      13.037499999999994      54.012499999999989      67.049999999999997
   222   1      13.037499999999994      54.012499999999989      70.775000000000006
   223   1       11.17499999999999       57.73749999999999      46.562499999999993
   224   1      13.037499999999994      55.874999999999993      46.562499999999993
   225   1      13.037499999999994       57.73749999999999      44.700000000000003
   226   1       11.17499999999999      55.874999999999993       48.42499999999999
   227   1       11.17499999999999       57.73749999999999      50.287499999999987
   228   1      13.037499999999994      55.874999999999993      50.287499999999987
   229   1      13.037499999999994       57.73749999999999       48.42499999999999
   230   1       11.17499999999999      55.874999999999993      52.149999999999991
   231   1       11.17499999999999       57.73749999999999      54.012499999999989
   232   1      13.037499999999994      55.874999999999993      54.012499999999989
   233   1      13.037499999999994       57.73749999999999      52.149999999999991
   234   1       11.17499999999999      55.874999999999993      55.874999999999993
   235   1       11.17499999999999       57.73749999999999       57.73749999999999
   236   1      13.037499999999994      55.874999999999993       57.73749999999999
   237   1      13.037499999999994       57.73749999999999      55.874999999999993
   238   1       11.17499999999999      55.874999999999993      59.599999999999994
   239   1       11.17499999999999       57.73749999999999      61.462499999999999
   240   1      13.037499999999994      55.874999999999993      61.462499999999999
   241   1      13.037499999999994       57.73749999999999      59.599999999999994
   242   1       11.17499999999999      55.874999999999993      63.324999999999996
   243   1       11.17499999999999       57.73749999999999      65.187499999999986
   244   1      13.037499999999994      55.874999999999993      65.187499999999986
   245   1      13.037499999999994       57.73749999999999      63.324999999999996
   246   1       11.17499999999999      55.874999999999993      67.049999999999997
   247   1       11.17499999999999       57.73749999999999      68.912499999999994
   248   1      13.037499999999994      55.874999999999993      68.912499999999994
   249   1      13.037499999999994       57.73749999999999      67.049999999999997
   250   1       11.17499999999999      55.874999999999993      70.775000000000006
   251   1       11.17499999999999       57.73749999999999      72.637500000000003
   252   1      13.037499999999994      55.874999999999993      72.637500000000003
   253   1      13.037499999999994       57.73749999999999      70.775000000000006
   254   1      13.037499999999994       57.73749999999999                    74.5
   255   1       11.17499999999999      61.462499999999999      46.562499999999993
   256   1      13.037499999999994      59.599999999999994      46.562499999999993
   257   1      13.037499999999994      61.462499999999999      44.700000000000003
   258   1       11.17499999999999      59.599999999999994       48.42499999999999
   259   1       11.17499999999999      61.462499999999999      50.287499999999987
   260   1      13.037499999999994      59.599999999999994      50.287499999999987
   261   1      13.037499999999994      61.462499999999999       48.42499999999999
   262   1       11.17499999999999      59.599999999999994      52.149999999999991
   263   1       11.17499999999999      61.462499999999999      54.012499999999989
   264   1      13.037499999999994      59.599999999999994      54.012499999999989
   265   1      13.037499999999994      61.462499999999999      52.149999999999991
   266   1       11.17499999999999      59.599999999999994      55.874999999999993
   267   1       11.17499999999999      61.462499999999999       57.73749999999999
   268   1      13.037499999999994      59.599999999999994       57.73749999999999
   269   1      13.037499999999994      61.462499999999999      55.874999999999993
   270   1       11.17499999999999      59.599999999999994      59.599999999999994
   271   1       11.17499999999999      61.462499999999999      61.462499999999999
   272   1      13.037499999999994      59.599999999999994      61.462499999999999
   273   1      13.037499999999994      61.462499999999999      59.599999999999994
   274   1       11.17499999999999      59.599999999999994      63.324999999999996
   275   1       11.17499999999999      61.462499999999999      65.187499999999986
   276   1      13.037499999999994      59.599999999999994      65.187499999999986
   277   1      13.037499999999994      61.462499999999999      63.324999999999996
   278   1       11.17499999999999      59.599999999999994      67.049999999999997
   279   1       11.17499999999999      61.462499999999999      68.912499999999994
   280   1      13.037499999999994      59.599999999999994      68.912499999999994
   281   1      13.037499999999994      61.462499999999999      67.049999999999997
   282   1       11.17499999999999      59.599999999999994      70.775000000000006
   283   1       11.17499999999999      61.462499999999999      72.637500000000003
   284   1      13.037499999999994      59.599999999999994      72.637500000000003
   285   1      13.037499999999994      61.462499999999999      70.775000000000006
   286   1      13.037499999999994      61.462499999999999                    74.5
   287   1      13.037499999999994      63.324999999999996      46.562499999999993
   288   1       11.17499999999999      63.324999999999996       48.42499999999999
   289   1       11.17499999999999      65.187499999999986      50.287499999999987
   290   1      13.037499999999994      63.324999999999996      50.287499999999987
   291   1      13.037499999999994      65.187499999999986       48.42499999999999
   292   1       11.17499999999999      63.324999999999996      52.149999999999991
   293   1       11.17499999999999      65.187499999999986      54.012499999999989
   294   1      13.037499999999994      63.324999999999996      54.012499999999989
   295   1      13.037499999999994      65.187499999999986      52.149999999999991
   296   1       11.17499999999999      63.324999999999996      55.874999999999993
   297   1       11.17499999999999      65.187499999999986       57.73749999999999
   298   1      13.037499999999994      63.324999999999996       57.73749999999999
   299   1      13.037499999999994      65.187499999999986      55.874999999999993
   300   1       11.17499999999999      63.324999999999996      59.599999999999994
   301   1       11.17499999999999      65.187499999999986      61.462499999999999
   302   1      13.037499999999994      63.324999999999996      61.462499999999999
   303   1      13.037499999999994      65.187499999999986      59.599999999999994
   304   1       11.17499999999999      63.324999999999996      63.324999999999996
   305   1       11.17499999999999      65.187499999999986      65.187499999999986
   306   1      13.037499999999994      63.324999999999996      65.187499999999986
   307   1      13.037499999999994      65.187499999999986      63.324999999999996
   308   1       11.17499999999999      63.324999999999996      67.049999999999997
   309   1       11.17499999999999      65.187499999999986      68.912499999999994
   310   1      13.037499999999994      63.324999999999996      68.912499999999994
   311   1      13.037499999999994      65.187499999999986      67.049999999999997
   312   1       11.17499999999999      63.324999999999996      70.775000000000006
   313   1      13.037499999999994      63.324999999999996      72.637500000000003
   314   1      13.037499999999994      65.187499999999986      70.775000000000006
   315   1      13.037499999999994      67.049999999999997      50.287499999999987
   316   1       11.17499999999999      67.049999999999997      52.149999999999991
   317   1       11.17499999999999      68.912499999999994      54.012499999999989
   318   1      13.037499999999994      67.049999999999997      54.012499999999989
   319   1      13.037499999999994      68.912499999999994      52.149999999999991
   320   1       11.17499999999999      67.049999999999997      55.874999999999993
   321   1       11.17499999999999      68.912499999999994       57.73749999999999
   322   1      13.037499999999994      67.049999999999997       57.73749999999999
   323   1      13.037499999999994      68.912499999999994      55.874999999999993
   324   1       11.17499999999999      67.049999999999997      59.599999999999994
   325   1       11.17499999999999      68.912499999999994      61.462499999999999
   326   1      13.037499999999994      67.049999999999997      61.462499999999999
   327   1      13.037499999999994      68.912499999999994      59.599999999999994
   328   1       11.17499999999999      67.049999999999997      63.324999999999996
   329   1       11.17499999999999      68.912499999999994      65.187499999999986
   330   1      13.037499999999994      67.049999999999997      65.187499999999986
   331   1      13.037499999999994      68.912499999999994      63.324999999999996
   332   1       11.17499999999999      67.049999999999997      67.049999999999997
   333   1      13.037499999999994      67.049999999999997      68.912499999999994
   334   1      13.037499999999994      68.912499999999994      67.049999999999997
   335   1      13.037499999999994      70.775000000000006      54.012499999999989
   336   1       11.17499999999999      70.775000000000006      55.874999999999993
   337   1       11.17499999999999      72.637500000000003       57.73749999999999
   338   1      13.037499999999994      70.775000000000006       57.73749999999999
   339   1      13.037499999999994      72.637500000000003      55.874999999999993
   340   1       11.17499999999999      70.775000000000006      59.599999999999994
   341   1       11.17499999999999      72.637500000000003      61.462499999999999
   342   1      13.037499999999994      70.775000000000006      61.462499999999999
   343   1      13.037499999999994      72.637500000000003      59.599999999999994
   344   1       11.17499999999999      70.775000000000006      63.324999999999996
   345   1      13.037499999999994      70.775000000000006      65.187499999999986
   346   1      13.037499999999994      72.637500000000003      63.324999999999996
   347   1      13.037499999999994                    74.5       57.73749999999999
   348   1      13.037499999999994                    74.5      61.462499999999999
   349   1      14.899999999999991      42.837499999999991       57.73749999999999
   350   1      16.762499999999989      40.975000000000001       57.73749999999999
   351   1      16.762499999999989      42.837499999999991      55.874999999999993
   352   1      14.899999999999991      42.837499999999991      61.462499999999999
   353   1      16.762499999999989      40.975000000000001      61.462499999999999
   354   1      16.762499999999989      42.837499999999991      59.599999999999994
   355   1      16.762499999999989      42.837499999999991      63.324999999999996
   356   1      16.762499999999989      46.562499999999993       48.42499999999999
   357   1      14.899999999999991      46.562499999999993      54.012499999999989
   358   1      16.762499999999989      44.700000000000003      54.012499999999989