model_files/Pt/Pt_3000/Pt_541/data.Pt_541_fcc_3025 (written by ASE) 

3025 	 atoms 
1  atom types
0.0                      50  xlo xhi
0.0                      50  ylo yhi
0.0                      50  zlo zhi


Atoms 

     1   1  7.1054273576010019e-15      23.520000000000007      25.480000000000004
     2   1  7.1054273576010019e-15      25.480000000000004      23.520000000000007
     3   1  7.1054273576010019e-15      25.480000000000004      27.440000000000005
     4   1  7.1054273576010019e-15      27.440000000000005      25.480000000000004
     5   1      3.9200000000000053      19.600000000000009      21.560000000000006
     6   1      3.9200000000000053      19.600000000000009      25.480000000000004
     7   1      3.9200000000000053      19.600000000000009      29.400000000000006
     8   1      3.9200000000000053      21.560000000000006      19.600000000000009
     9   1       1.960000000000008      23.520000000000007      23.520000000000007
    10   1      3.9200000000000053      21.560000000000006      23.520000000000007
    11   1      3.9200000000000053      23.520000000000007      21.560000000000006
    12   1       1.960000000000008      21.560000000000006      25.480000000000004
    13   1       1.960000000000008      23.520000000000007      27.440000000000005
    14   1      3.9200000000000053      21.560000000000006      27.440000000000005
    15   1      3.9200000000000053      23.520000000000007      25.480000000000004
    16   1      3.9200000000000053      21.560000000000006      31.360000000000003
    17   1      3.9200000000000053      23.520000000000007      29.400000000000006
    18   1      3.9200000000000053      25.480000000000004      19.600000000000009
    19   1       1.960000000000008      25.480000000000004      21.560000000000006
    20   1       1.960000000000008      27.440000000000005      23.520000000000007
    21   1      3.9200000000000053      25.480000000000004      23.520000000000007
    22   1      3.9200000000000053      27.440000000000005      21.560000000000006
    23   1       1.960000000000008      25.480000000000004      25.480000000000004
    24   1       1.960000000000008      27.440000000000005      27.440000000000005
    25   1      3.9200000000000053      25.480000000000004      27.440000000000005
    26   1      3.9200000000000053      27.440000000000005      25.480000000000004
    27   1       1.960000000000008      25.480000000000004      29.400000000000006
    28   1      3.9200000000000053      25.480000000000004      31.360000000000003
    29   1      3.9200000000000053      27.440000000000005      29.400000000000006
    30   1      3.9200000000000053      29.400000000000006      19.600000000000009
    31   1      3.9200000000000053      29.400000000000006      23.520000000000007
    32   1      3.9200000000000053      31.360000000000003      21.560000000000006
    33   1       1.960000000000008      29.400000000000006      25.480000000000004
    34   1      3.9200000000000053      29.400000000000006      27.440000000000005
    35   1      3.9200000000000053      31.360000000000003      25.480000000000004
    36   1      3.9200000000000053      29.400000000000006      31.360000000000003
    37   1      3.9200000000000053      31.360000000000003      29.400000000000006
    38   1       7.840000000000007      15.680000000000009      17.640000000000008
    39   1       7.840000000000007      15.680000000000009      21.560000000000006
    40   1       7.840000000000007      15.680000000000009      25.480000000000004
    41   1       7.840000000000007      15.680000000000009      29.400000000000006
    42   1       7.840000000000007      15.680000000000009      33.320000000000007
    43   1       7.840000000000007      17.640000000000008      15.680000000000009
    44   1      5.8800000000000061      19.600000000000009      19.600000000000009
    45   1       7.840000000000007      17.640000000000008      19.600000000000009
    46   1       7.840000000000007      19.600000000000009      17.640000000000008
    47   1      5.8800000000000061      17.640000000000008      21.560000000000006
    48   1      5.8800000000000061      19.600000000000009      23.520000000000007
    49   1       7.840000000000007      17.640000000000008      23.520000000000007
    50   1       7.840000000000007      19.600000000000009      21.560000000000006
    51   1      5.8800000000000061      17.640000000000008      25.480000000000004
    52   1      5.8800000000000061      19.600000000000009      27.440000000000005
    53   1       7.840000000000007      17.640000000000008      27.440000000000005
    54   1       7.840000000000007      19.600000000000009      25.480000000000004
    55   1      5.8800000000000061      17.640000000000008      29.400000000000006
    56   1      5.8800000000000061      19.600000000000009      31.360000000000003
    57   1       7.840000000000007      17.640000000000008      31.360000000000003
    58   1       7.840000000000007      19.600000000000009      29.400000000000006
    59   1       7.840000000000007      17.640000000000008      35.280000000000008
    60   1       7.840000000000007      19.600000000000009      33.320000000000007
    61   1       7.840000000000007      21.560000000000006      15.680000000000009
    62   1      5.8800000000000061      21.560000000000006      17.640000000000008
    63   1      5.8800000000000061      23.520000000000007      19.600000000000009
    64   1       7.840000000000007      21.560000000000006      19.600000000000009
    65   1       7.840000000000007      23.520000000000007      17.640000000000008
    66   1      5.8800000000000061      21.560000000000006      21.560000000000006
    67   1      5.8800000000000061      23.520000000000007      23.520000000000007
    68   1       7.840000000000007      21.560000000000006      23.520000000000007
    69   1       7.840000000000007      23.520000000000007      21.560000000000006
    70   1      5.8800000000000061      21.560000000000006      25.480000000000004
    71   1      5.8800000000000061      23.520000000000007      27.440000000000005
    72   1       7.840000000000007      21.560000000000006      27.440000000000005
    73   1       7.840000000000007      23.520000000000007      25.480000000000004
    74   1      5.8800000000000061      21.560000000000006      29.400000000000006
    75   1      5.8800000000000061      23.520000000000007      31.360000000000003
    76   1       7.840000000000007      21.560000000000006      31.360000000000003
    77   1       7.840000000000007      23.520000000000007      29.400000000000006
    78   1      5.8800000000000061      21.560000000000006      33.320000000000007
    79   1       7.840000000000007      21.560000000000006      35.280000000000008
    80   1       7.840000000000007      23.520000000000007      33.320000000000007
    81   1       7.840000000000007      25.480000000000004      15.680000000000009
    82   1      5.8800000000000061      25.480000000000004      17.640000000000008
    83   1      5.8800000000000061      27.440000000000005      19.600000000000009
    84   1       7.840000000000007      25.480000000000004      19.600000000000009
    85   1       7.840000000000007      27.440000000000005      17.640000000000008
    86   1      5.8800000000000061      25.480000000000004      21.560000000000006
    87   1      5.8800000000000061      27.440000000000005      23.520000000000007
    88   1       7.840000000000007      25.480000000000004      23.520000000000007
    89   1       7.840000000000007      27.440000000000005      21.560000000000006
    90   1      5.8800000000000061      25.480000000000004      25.480000000000004
    91   1      5.8800000000000061      27.440000000000005      27.440000000000005
    92   1       7.840000000000007      25.480000000000004      27.440000000000005
    93   1       7.840000000000007      27.440000000000005      25.480000000000004
    94   1      5.8800000000000061      25.480000000000004      29.400000000000006
    95   1      5.8800000000000061      27.440000000000005      31.360000000000003
    96   1       7.840000000000007      25.480000000000004      31.360000000000003
    97   1       7.840000000000007      27.440000000000005      29.400000000000006
    98   1      5.8800000000000061      25.480000000000004      33.320000000000007
    99   1       7.840000000000007      25.480000000000004      35.280000000000008
   100   1       7.840000000000007      27.440000000000005      33.320000000000007
   101   1       7.840000000000007      29.400000000000006      15.680000000000009
   102   1      5.8800000000000061      29.400000000000006      17.640000000000008
   103   1      5.8800000000000061      31.360000000000003      19.600000000000009
   104   1       7.840000000000007      29.400000000000006      19.600000000000009
   105   1       7.840000000000007      31.360000000000003      17.640000000000008
   106   1      5.8800000000000061      29.400000000000006      21.560000000000006
   107   1      5.8800000000000061      31.360000000000003      23.520000000000007
   108   1       7.840000000000007      29.400000000000006      23.520000000000007
   109   1       7.840000000000007      31.360000000000003      21.560000000000006
   110   1      5.8800000000000061      29.400000000000006      25.480000000000004
   111   1      5.8800000000000061      31.360000000000003      27.440000000000005
   112   1       7.840000000000007      29.400000000000006      27.440000000000005
   113   1       7.840000000000007      31.360000000000003      25.480000000000004
   114   1      5.8800000000000061      29.400000000000006      29.400000000000006
   115   1      5.8800000000000061      31.360000000000003      31.360000000000003
   116   1       7.840000000000007      29.400000000000006      31.360000000000003
   117   1       7.840000000000007      31.360000000000003      29.400000000000006
   118   1      5.8800000000000061      29.400000000000006      33.320000000000007
   119   1       7.840000000000007      29.400000000000006      35.280000000000008
   120   1       7.840000000000007      31.360000000000003      33.320000000000007
   121   1       7.840000000000007      33.320000000000007      15.680000000000009
   122   1       7.840000000000007      33.320000000000007      19.600000000000009
   123   1       7.840000000000007      35.280000000000008      17.640000000000008
   124   1      5.8800000000000061      33.320000000000007      21.560000000000006
   125   1       7.840000000000007      33.320000000000007      23.520000000000007
   126   1       7.840000000000007      35.280000000000008      21.560000000000006
   127   1      5.8800000000000061      33.320000000000007      25.480000000000004
   128   1       7.840000000000007      33.320000000000007      27.440000000000005
   129   1       7.840000000000007      35.280000000000008      25.480000000000004
   130   1      5.8800000000000061      33.320000000000007      29.400000000000006
   131   1       7.840000000000007      33.320000000000007      31.360000000000003
   132   1       7.840000000000007      35.280000000000008      29.400000000000006
   133   1       7.840000000000007      33.320000000000007      35.280000000000008
   134   1       7.840000000000007      35.280000000000008      33.320000000000007
   135   1      11.760000000000005      11.760000000000005      13.720000000000008
   136   1      11.760000000000005      11.760000000000005      17.640000000000008
   137   1       9.800000000000006      11.760000000000005      23.520000000000007
   138   1      11.760000000000005       9.800000000000006      23.520000000000007
   139   1      11.760000000000005      11.760000000000005      21.560000000000006
   140   1       9.800000000000006      11.760000000000005      27.440000000000005
   141   1      11.760000000000005       9.800000000000006      27.440000000000005
   142   1      11.760000000000005      11.760000000000005      25.480000000000004
   143   1      11.760000000000005      11.760000000000005      29.400000000000006
   144   1      11.760000000000005      11.760000000000005      33.320000000000007
   145   1      11.760000000000005      11.760000000000005      37.240000000000009
   146   1      11.760000000000005      13.720000000000008      11.760000000000005
   147   1       9.800000000000006      15.680000000000009      15.680000000000009
   148   1      11.760000000000005      13.720000000000008      15.680000000000009
   149   1      11.760000000000005      15.680000000000009      13.720000000000008
   150   1       9.800000000000006      13.720000000000008      17.640000000000008
   151   1       9.800000000000006      15.680000000000009      19.600000000000009
   152   1      11.760000000000005      13.720000000000008      19.600000000000009
   153   1      11.760000000000005      15.680000000000009      17.640000000000008
   154   1       9.800000000000006      13.720000000000008      21.560000000000006
   155   1       9.800000000000006      15.680000000000009      23.520000000000007
   156   1      11.760000000000005      13.720000000000008      23.520000000000007
   157   1      11.760000000000005      15.680000000000009      21.560000000000006
   158   1       9.800000000000006      13.720000000000008      25.480000000000004
   159   1       9.800000000000006      15.680000000000009      27.440000000000005
   160   1      11.760000000000005      13.720000000000008      27.440000000000005
   161   1      11.760000000000005      15.680000000000009      25.480000000000004
   162   1       9.800000000000006      13.720000000000008      29.400000000000006
   163   1       9.800000000000006      15.680000000000009      31.360000000000003
   164   1      11.760000000000005      13.720000000000008      31.360000000000003
   165   1      11.760000000000005      15.680000000000009      29.400000000000006
   166   1       9.800000000000006      13.720000000000008      33.320000000000007
   167   1       9.800000000000006      15.680000000000009      35.280000000000008
   168   1      11.760000000000005      13.720000000000008      35.280000000000008
   169   1      11.760000000000005      15.680000000000009      33.320000000000007
   170   1      11.760000000000005      13.720000000000008       39.20000000000001
   171   1      11.760000000000005      15.680000000000009      37.240000000000009
   172   1      11.760000000000005      17.640000000000008      11.760000000000005
   173   1       9.800000000000006      17.640000000000008      13.720000000000008
   174   1       9.800000000000006      19.600000000000009      15.680000000000009
   175   1      11.760000000000005      17.640000000000008      15.680000000000009
   176   1      11.760000000000005      19.600000000000009      13.720000000000008
   177   1       9.800000000000006      17.640000000000008      17.640000000000008
   178   1       9.800000000000006      19.600000000000009      19.600000000000009
   179   1      11.760000000000005      17.640000000000008      19.600000000000009
   180   1      11.760000000000005      19.600000000000009      17.640000000000008
   181   1       9.800000000000006      17.640000000000008      21.560000000000006
   182   1       9.800000000000006      19.600000000000009      23.520000000000007
   183   1      11.760000000000005      17.640000000000008      23.520000000000007
   184   1      11.760000000000005      19.600000000000009      21.560000000000006
   185   1       9.800000000000006      17.640000000000008      25.480000000000004
   186   1       9.800000000000006      19.600000000000009      27.440000000000005
   187   1      11.760000000000005      17.640000000000008      27.440000000000005
   188   1      11.760000000000005      19.600000000000009      25.480000000000004
   189   1       9.800000000000006      17.640000000000008      29.400000000000006
   190   1       9.800000000000006      19.600000000000009      31.360000000000003
   191   1      11.760000000000005      17.640000000000008      31.360000000000003
   192   1      11.760000000000005      19.600000000000009      29.400000000000006
   193   1       9.800000000000006      17.640000000000008      33.320000000000007
   194   1       9.800000000000006      19.600000000000009      35.280000000000008
   195   1      11.760000000000005      17.640000000000008      35.280000000000008
   196   1      11.760000000000005      19.600000000000009      33.320000000000007
   197   1       9.800000000000006      17.640000000000008      37.240000000000009
   198   1      11.760000000000005      17.640000000000008       39.20000000000001
   199   1      11.760000000000005      19.600000000000009      37.240000000000009
   200   1       9.800000000000006      23.520000000000007      11.760000000000005
   201   1      11.760000000000005      21.560000000000006      11.760000000000005
   202   1      11.760000000000005      23.520000000000007       9.800000000000006
   203   1       9.800000000000006      21.560000000000006      13.720000000000008
   204   1       9.800000000000006      23.520000000000007      15.680000000000009
   205   1      11.760000000000005      21.560000000000006      15.680000000000009
   206   1      11.760000000000005      23.520000000000007      13.720000000000008
   207   1       9.800000000000006      21.560000000000006      17.640000000000008
   208   1       9.800000000000006      23.520000000000007      19.600000000000009
   209   1      11.760000000000005      21.560000000000006      19.600000000000009
   210   1      11.760000000000005      23.520000000000007      17.640000000000008
   211   1       9.800000000000006      21.560000000000006      21.560000000000006
   212   1       9.800000000000006      23.520000000000007      23.520000000000007
   213   1      11.760000000000005      21.560000000000006      23.520000000000007
   214   1      11.760000000000005      23.520000000000007      21.560000000000006
   215   1       9.800000000000006      21.560000000000006      25.480000000000004
   216   1       9.800000000000006      23.520000000000007      27.440000000000005
   217   1      11.760000000000005      21.560000000000006      27.440000000000005
   218   1      11.760000000000005      23.520000000000007      25.480000000000004
   219   1       9.800000000000006      21.560000000000006      29.400000000000006
   220   1       9.800000000000006      23.520000000000007      31.360000000000003
   221   1      11.760000000000005      21.560000000000006      31.360000000000003
   222   1      11.760000000000005      23.520000000000007      29.400000000000006
   223   1       9.800000000000006      21.560000000000006      33.320000000000007
   224   1       9.800000000000006      23.520000000000007      35.280000000000008
   225   1      11.760000000000005      21.560000000000006      35.280000000000008
   226   1      11.760000000000005      23.520000000000007      33.320000000000007
   227   1       9.800000000000006      21.560000000000006      37.240000000000009
   228   1       9.800000000000006      23.520000000000007       39.20000000000001
   229   1      11.760000000000005      21.560000000000006       39.20000000000001
   230   1      11.760000000000005      23.520000000000007      37.240000000000009
   231   1      11.760000000000005      23.520000000000007      41.160000000000004
   232   1       9.800000000000006      27.440000000000005      11.760000000000005
   233   1      11.760000000000005      25.480000000000004      11.760000000000005
   234   1      11.760000000000005      27.440000000000005       9.800000000000006
   235   1       9.800000000000006      25.480000000000004      13.720000000000008
   236   1       9.800000000000006      27.440000000000005      15.680000000000009
   237   1      11.760000000000005      25.480000000000004      15.680000000000009
   238   1      11.760000000000005      27.440000000000005      13.720000000000008
   239   1       9.800000000000006      25.480000000000004      17.640000000000008
   240   1       9.800000000000006      27.440000000000005      19.600000000000009
   241   1      11.760000000000005      25.480000000000004      19.600000000000009
   242   1      11.760000000000005      27.440000000000005      17.640000000000008
   243   1       9.800000000000006      25.480000000000004      21.560000000000006
   244   1       9.800000000000006      27.440000000000005      23.520000000000007
   245   1      11.760000000000005      25.480000000000004      23.520000000000007
   246   1      11.760000000000005      27.440000000000005      21.560000000000006
   247   1       9.800000000000006      25.480000000000004      25.480000000000004
   248   1       9.800000000000006      27.440000000000005      27.440000000000005
   249   1      11.760000000000005      25.480000000000004      27.440000000000005
   250   1      11.760000000000005      27.440000000000005      25.480000000000004
   251   1       9.800000000000006      25.480000000000004      29.400000000000006
   252   1       9.800000000000006      27.440000000000005      31.360000000000003
   253   1      11.760000000000005      25.480000000000004      31.360000000000003
   254   1      11.760000000000005      27.440000000000005      29.400000000000006
   255   1       9.800000000000006      25.480000000000004      33.320000000000007
   256   1       9.800000000000006      27.440000000000005      35.280000000000008
   257   1      11.760000000000005      25.480000000000004      35.280000000000008
   258   1      11.760000000000005      27.440000000000005      33.320000000000007
   259   1       9.800000000000006      25.480000000000004      37.240000000000009
   260   1       9.800000000000006      27.440000000000005       39.20000000000001
   261   1      11.760000000000005      25.480000000000004       39.20000000000001
   262   1      11.760000000000005      27.440000000000005      37.240000000000009
   263   1      11.760000000000005      27.440000000000005      41.160000000000004
   264   1      11.760000000000005      29.400000000000006      11.760000000000005
   265   1       9.800000000000006      29.400000000000006      13.720000000000008
   266   1       9.800000000000006      31.360000000000003      15.680000000000009
   267   1      11.760000000000005      29.400000000000006      15.680000000000009
   268   1      11.760000000000005      31.360000000000003      13.720000000000008
   269   1       9.800000000000006      29.400000000000006      17.640000000000008
   270   1       9.800000000000006      31.360000000000003      19.600000000000009
   271   1      11.760000000000005      29.400000000000006      19.600000000000009
   272   1      11.760000000000005      31.360000000000003      17.640000000000008
   273   1       9.800000000000006      29.400000000000006      21.560000000000006
   274   1       9.800000000000006      31.360000000000003      23.520000000000007
   275   1      11.760000000000005      29.400000000000006      23.520000000000007
   276   1      11.760000000000005      31.360000000000003      21.560000000000006
   277   1       9.800000000000006      29.400000000000006      25.480000000000004
   278   1       9.800000000000006      31.360000000000003      27.440000000000005
   279   1      11.760000000000005      29.400000000000006      27.440000000000005
   280   1      11.760000000000005      31.360000000000003      25.480000000000004
   281   1       9.800000000000006      29.400000000000006      29.400000000000006
   282   1       9.800000000000006      31.360000000000003      31.360000000000003
   283   1      11.760000000000005      29.400000000000006      31.360000000000003
   284   1      11.760000000000005      31.360000000000003      29.400000000000006
   285   1       9.800000000000006      29.400000000000006      33.320000000000007
   286   1       9.800000000000006      31.360000000000003      35.280000000000008
   287   1      11.760000000000005      29.400000000000006      35.280000000000008
   288   1      11.760000000000005      31.360000000000003      33.320000000000007
   289   1       9.800000000000006      29.400000000000006      37.240000000000009
   290   1      11.760000000000005      29.400000000000006       39.20000000000001
   291   1      11.760000000000005      31.360000000000003      37.240000000000009
   292   1      11.760000000000005      33.320000000000007      11.760000000000005
   293   1       9.800000000000006      33.320000000000007      13.720000000000008
   294   1       9.800000000000006      35.280000000000008      15.680000000000009
   295   1      11.760000000000005      33.320000000000007      15.680000000000009
   296   1      11.760000000000005      35.280000000000008      13.720000000000008
   297   1       9.800000000000006      33.320000000000007      17.640000000000008
   298   1       9.800000000000006      35.280000000000008      19.600000000000009
   299   1      11.760000000000005      33.320000000000007      19.600000000000009
   300   1      11.760000000000005      35.280000000000008      17.640000000000008
   301   1       9.800000000000006      33.320000000000007      21.560000000000006
   302   1       9.800000000000006      35.280000000000008      23.520000000000007
   303   1      11.760000000000005      33.320000000000007      23.520000000000007
   304   1      11.760000000000005      35.280000000000008      21.560000000000006
   305   1       9.800000000000006      33.320000000000007      25.480000000000004
   306   1       9.800000000000006      35.280000000000008      27.440000000000005
   307   1      11.760000000000005      33.320000000000007      27.440000000000005
   308   1      11.760000000000005      35.280000000000008      25.480000000000004
   309   1       9.800000000000006      33.320000000000007      29.400000000000006
   310   1       9.800000000000006      35.280000000000008      31.360000000000003
   311   1      11.760000000000005      33.320000000000007      31.360000000000003
   312   1      11.760000000000005      35.280000000000008      29.400000000000006
   313   1       9.800000000000006      33.320000000000007      33.320000000000007
   314   1       9.800000000000006      35.280000000000008      35.280000000000008
   315   1      11.760000000000005      33.320000000000007      35.280000000000008
   316   1      11.760000000000005      35.280000000000008      33.320000000000007
   317   1       9.800000000000006      33.320000000000007      37.240000000000009
   318   1      11.760000000000005      33.320000000000007       39.20000000000001
   319   1      11.760000000000005      35.280000000000008      37.240000000000009
   320   1      11.760000000000005      37.240000000000009      11.760000000000005
   321   1      11.760000000000005      37.240000000000009      15.680000000000009
   322   1      11.760000000000005       39.20000000000001      13.720000000000008
   323   1       9.800000000000006      37.240000000000009      17.640000000000008
   324   1      11.760000000000005      37.240000000000009      19.600000000000009
   325   1      11.760000000000005       39.20000000000001      17.640000000000008
   326   1       9.800000000000006      37.240000000000009      21.560000000000006
   327   1       9.800000000000006       39.20000000000001      23.520000000000007
   328   1      11.760000000000005      37.240000000000009      23.520000000000007
   329   1      11.760000000000005       39.20000000000001      21.560000000000006
   330   1       9.800000000000006      37.240000000000009      25.480000000000004
   331   1       9.800000000000006       39.20000000000001      27.440000000000005
   332   1      11.760000000000005      37.240000000000009      27.440000000000005
   333   1      11.760000000000005       39.20000000000001      25.480000000000004
   334   1       9.800000000000006      37.240000000000009      29.400000000000006
   335   1      11.760000000000005      37.240000000000009      31.360000000000003
   336   1      11.760000000000005       39.20000000000001      29.400000000000006
   337   1       9.800000000000006      37.240000000000009      33.320000000000007
   338   1      11.760000000000005      37.240000000000009      35.280000000000008
   339   1      11.760000000000005       39.20000000000001      33.320000000000007
   340   1      11.760000000000005      37.240000000000009       39.20000000000001
   341   1      11.760000000000005       39.20000000000001      37.240000000000009
   342   1      11.760000000000005      41.160000000000004      23.520000000000007
   343   1      11.760000000000005      41.160000000000004      27.440000000000005
   344   1      15.680000000000009       7.840000000000007      17.640000000000008
   345   1      15.680000000000009       7.840000000000007      21.560000000000006
   346   1      15.680000000000009       7.840000000000007      25.480000000000004
   347   1      15.680000000000009       7.840000000000007      29.400000000000006
   348   1      15.680000000000009       7.840000000000007      33.320000000000007
   349   1      13.720000000000008      11.760000000000005      11.760000000000005
   350   1      13.720000000000008      11.760000000000005      15.680000000000009
   351   1      15.680000000000009       9.800000000000006      15.680000000000009
   352   1      15.680000000000009      11.760000000000005      13.720000000000008
   353   1      13.720000000000008       9.800000000000006      17.640000000000008
   354   1      13.720000000000008      11.760000000000005      19.600000000000009
   355   1      15.680000000000009       9.800000000000006      19.600000000000009
   356   1      15.680000000000009      11.760000000000005      17.640000000000008
   357   1      13.720000000000008       9.800000000000006      21.560000000000006
   358   1      13.720000000000008      11.760000000000005      23.520000000000007