model_files/Co/Co_3000/Co_532/data.Co_532_hcp_2965 (written by ASE) 

2965 	 atoms 
1  atom types
0.0                      30  xlo xhi
0.0                      30  ylo yhi
0.0                      30  zlo zhi


Atoms 

     1   1      1.2549999999999955      11.294999999999995      15.059999999999993
     2   1      29.999999999999993      13.804999999999993      13.804999999999993
     3   1      1.2549999999999955      12.549999999999994      13.804999999999993
     4   1      1.2549999999999955      13.804999999999993      12.549999999999994
     5   1      29.999999999999993      12.549999999999994      15.059999999999993
     6   1      29.999999999999993      13.804999999999993      16.314999999999994
     7   1      1.2549999999999955      12.549999999999994      16.314999999999994
     8   1      1.2549999999999955      13.804999999999993      15.059999999999993
     9   1      1.2549999999999955      13.804999999999993      17.569999999999993
    10   1      1.2549999999999955      15.059999999999993      11.294999999999995
    11   1      29.999999999999993      15.059999999999993      12.549999999999994
    12   1      29.999999999999993      16.314999999999994      13.804999999999993
    13   1      1.2549999999999955      15.059999999999993      13.804999999999993
    14   1      1.2549999999999955      16.314999999999994      12.549999999999994
    15   1      29.999999999999993      15.059999999999993      15.059999999999993
    16   1      29.999999999999993      16.314999999999994      16.314999999999994
    17   1      1.2549999999999955      15.059999999999993      16.314999999999994
    18   1      1.2549999999999955      16.314999999999994      15.059999999999993
    19   1      29.999999999999993      15.059999999999993      17.569999999999993
    20   1      1.2549999999999955      15.059999999999993      18.824999999999992
    21   1      1.2549999999999955      16.314999999999994      17.569999999999993
    22   1      1.2549999999999955      17.569999999999993      13.804999999999993
    23   1      29.999999999999993      17.569999999999993      15.059999999999993
    24   1      1.2549999999999955      17.569999999999993      16.314999999999994
    25   1      1.2549999999999955      18.824999999999992      15.059999999999993
    26   1      3.7649999999999935       6.274999999999995      15.059999999999993
    27   1      3.7649999999999935      7.5299999999999931      13.804999999999993
    28   1      3.7649999999999935       8.784999999999993      12.549999999999994
    29   1      3.7649999999999935      7.5299999999999931      16.314999999999994
    30   1      3.7649999999999935       8.784999999999993      15.059999999999993
    31   1      3.7649999999999935       8.784999999999993      17.569999999999993
    32   1      2.5099999999999945      11.294999999999995      11.294999999999995
    33   1      3.7649999999999935      10.039999999999994      11.294999999999995
    34   1      3.7649999999999935      11.294999999999995      10.039999999999994
    35   1      2.5099999999999945      10.039999999999994      12.549999999999994
    36   1      2.5099999999999945      11.294999999999995      13.804999999999993
    37   1      3.7649999999999935      10.039999999999994      13.804999999999993
    38   1      3.7649999999999935      11.294999999999995      12.549999999999994
    39   1      2.5099999999999945      10.039999999999994      15.059999999999993
    40   1      2.5099999999999945      11.294999999999995      16.314999999999994
    41   1      3.7649999999999935      10.039999999999994      16.314999999999994
    42   1      3.7649999999999935      11.294999999999995      15.059999999999993
    43   1      2.5099999999999945      10.039999999999994      17.569999999999993
    44   1      2.5099999999999945      11.294999999999995      18.824999999999992
    45   1      3.7649999999999935      10.039999999999994      18.824999999999992
    46   1      3.7649999999999935      11.294999999999995      17.569999999999993
    47   1      3.7649999999999935      11.294999999999995      20.079999999999991
    48   1      3.7649999999999935      12.549999999999994       8.784999999999993
    49   1      3.7649999999999935      13.804999999999993      7.5299999999999931
    50   1      2.5099999999999945      12.549999999999994      10.039999999999994
    51   1      2.5099999999999945      13.804999999999993      11.294999999999995
    52   1      3.7649999999999935      12.549999999999994      11.294999999999995
    53   1      3.7649999999999935      13.804999999999993      10.039999999999994
    54   1      2.5099999999999945      12.549999999999994      12.549999999999994
    55   1      2.5099999999999945      13.804999999999993      13.804999999999993
    56   1      3.7649999999999935      12.549999999999994      13.804999999999993
    57   1      3.7649999999999935      13.804999999999993      12.549999999999994
    58   1      2.5099999999999945      12.549999999999994      15.059999999999993
    59   1      2.5099999999999945      13.804999999999993      16.314999999999994
    60   1      3.7649999999999935      12.549999999999994      16.314999999999994
    61   1      3.7649999999999935      13.804999999999993      15.059999999999993
    62   1      2.5099999999999945      12.549999999999994      17.569999999999993
    63   1      2.5099999999999945      13.804999999999993      18.824999999999992
    64   1      3.7649999999999935      12.549999999999994      18.824999999999992
    65   1      3.7649999999999935      13.804999999999993      17.569999999999993
    66   1      2.5099999999999945      12.549999999999994      20.079999999999991
    67   1      3.7649999999999935      12.549999999999994      21.334999999999987
    68   1      3.7649999999999935      13.804999999999993      20.079999999999991
    69   1      3.7649999999999935      13.804999999999993      22.589999999999993
    70   1      3.7649999999999935      15.059999999999993       6.274999999999995
    71   1      3.7649999999999935      15.059999999999993       8.784999999999993
    72   1      3.7649999999999935      16.314999999999994      7.5299999999999931
    73   1      2.5099999999999945      15.059999999999993      10.039999999999994
    74   1      2.5099999999999945      16.314999999999994      11.294999999999995
    75   1      3.7649999999999935      15.059999999999993      11.294999999999995
    76   1      3.7649999999999935      16.314999999999994      10.039999999999994
    77   1      2.5099999999999945      15.059999999999993      12.549999999999994
    78   1      2.5099999999999945      16.314999999999994      13.804999999999993
    79   1      3.7649999999999935      15.059999999999993      13.804999999999993
    80   1      3.7649999999999935      16.314999999999994      12.549999999999994
    81   1      2.5099999999999945      15.059999999999993      15.059999999999993
    82   1      2.5099999999999945      16.314999999999994      16.314999999999994
    83   1      3.7649999999999935      15.059999999999993      16.314999999999994
    84   1      3.7649999999999935      16.314999999999994      15.059999999999993
    85   1      2.5099999999999945      15.059999999999993      17.569999999999993
    86   1      2.5099999999999945      16.314999999999994      18.824999999999992
    87   1      3.7649999999999935      15.059999999999993      18.824999999999992
    88   1      3.7649999999999935      16.314999999999994      17.569999999999993
    89   1      2.5099999999999945      15.059999999999993      20.079999999999991
    90   1      3.7649999999999935      15.059999999999993      21.334999999999987
    91   1      3.7649999999999935      16.314999999999994      20.079999999999991
    92   1      3.7649999999999935      15.059999999999993      23.844999999999992
    93   1      3.7649999999999935      16.314999999999994      22.589999999999993
    94   1      3.7649999999999935      17.569999999999993       8.784999999999993
    95   1      2.5099999999999945      17.569999999999993      10.039999999999994
    96   1      2.5099999999999945      18.824999999999992      11.294999999999995
    97   1      3.7649999999999935      17.569999999999993      11.294999999999995
    98   1      3.7649999999999935      18.824999999999992      10.039999999999994
    99   1      2.5099999999999945      17.569999999999993      12.549999999999994
   100   1      2.5099999999999945      18.824999999999992      13.804999999999993
   101   1      3.7649999999999935      17.569999999999993      13.804999999999993
   102   1      3.7649999999999935      18.824999999999992      12.549999999999994
   103   1      2.5099999999999945      17.569999999999993      15.059999999999993
   104   1      2.5099999999999945      18.824999999999992      16.314999999999994
   105   1      3.7649999999999935      17.569999999999993      16.314999999999994
   106   1      3.7649999999999935      18.824999999999992      15.059999999999993
   107   1      2.5099999999999945      17.569999999999993      17.569999999999993
   108   1      2.5099999999999945      18.824999999999992      18.824999999999992
   109   1      3.7649999999999935      17.569999999999993      18.824999999999992
   110   1      3.7649999999999935      18.824999999999992      17.569999999999993
   111   1      2.5099999999999945      17.569999999999993      20.079999999999991
   112   1      3.7649999999999935      17.569999999999993      21.334999999999987
   113   1      3.7649999999999935      18.824999999999992      20.079999999999991
   114   1      3.7649999999999935      20.079999999999991      11.294999999999995
   115   1      2.5099999999999945      20.079999999999991      12.549999999999994
   116   1      3.7649999999999935      20.079999999999991      13.804999999999993
   117   1      3.7649999999999935      21.334999999999987      12.549999999999994
   118   1      2.5099999999999945      20.079999999999991      15.059999999999993
   119   1      3.7649999999999935      20.079999999999991      16.314999999999994
   120   1      3.7649999999999935      21.334999999999987      15.059999999999993
   121   1      2.5099999999999945      20.079999999999991      17.569999999999993
   122   1      3.7649999999999935      20.079999999999991      18.824999999999992
   123   1      3.7649999999999935      21.334999999999987      17.569999999999993
   124   1      3.7649999999999935      22.589999999999993      13.804999999999993
   125   1      3.7649999999999935      22.589999999999993      16.314999999999994
   126   1      3.7649999999999935      23.844999999999992      15.059999999999993
   127   1       6.274999999999995      3.7649999999999935      15.059999999999993
   128   1       6.274999999999995       6.274999999999995      10.039999999999994
   129   1      5.0199999999999942       6.274999999999995      13.804999999999993
   130   1       6.274999999999995      5.0199999999999942      13.804999999999993
   131   1       6.274999999999995       6.274999999999995      12.549999999999994
   132   1      5.0199999999999942      5.0199999999999942      15.059999999999993
   133   1      5.0199999999999942       6.274999999999995      16.314999999999994
   134   1       6.274999999999995      5.0199999999999942      16.314999999999994
   135   1       6.274999999999995       6.274999999999995      15.059999999999993
   136   1       6.274999999999995       6.274999999999995      17.569999999999993
   137   1       6.274999999999995       6.274999999999995      20.079999999999991
   138   1      5.0199999999999942       8.784999999999993       8.784999999999993
   139   1       6.274999999999995      7.5299999999999931       8.784999999999993
   140   1       6.274999999999995       8.784999999999993      7.5299999999999931
   141   1      5.0199999999999942      7.5299999999999931      10.039999999999994
   142   1      5.0199999999999942       8.784999999999993      11.294999999999995
   143   1       6.274999999999995      7.5299999999999931      11.294999999999995
   144   1       6.274999999999995       8.784999999999993      10.039999999999994
   145   1      5.0199999999999942      7.5299999999999931      12.549999999999994
   146   1      5.0199999999999942       8.784999999999993      13.804999999999993
   147   1       6.274999999999995      7.5299999999999931      13.804999999999993
   148   1       6.274999999999995       8.784999999999993      12.549999999999994
   149   1      5.0199999999999942      7.5299999999999931      15.059999999999993
   150   1      5.0199999999999942       8.784999999999993      16.314999999999994
   151   1       6.274999999999995      7.5299999999999931      16.314999999999994
   152   1       6.274999999999995       8.784999999999993      15.059999999999993
   153   1      5.0199999999999942      7.5299999999999931      17.569999999999993
   154   1      5.0199999999999942       8.784999999999993      18.824999999999992
   155   1       6.274999999999995      7.5299999999999931      18.824999999999992
   156   1       6.274999999999995       8.784999999999993      17.569999999999993
   157   1      5.0199999999999942      7.5299999999999931      20.079999999999991
   158   1      5.0199999999999942       8.784999999999993      21.334999999999987
   159   1       6.274999999999995      7.5299999999999931      21.334999999999987
   160   1       6.274999999999995       8.784999999999993      20.079999999999991
   161   1       6.274999999999995       8.784999999999993      22.589999999999993
   162   1       6.274999999999995      10.039999999999994       6.274999999999995
   163   1      5.0199999999999942      10.039999999999994      7.5299999999999931
   164   1      5.0199999999999942      11.294999999999995       8.784999999999993
   165   1       6.274999999999995      10.039999999999994       8.784999999999993
   166   1       6.274999999999995      11.294999999999995      7.5299999999999931
   167   1      5.0199999999999942      10.039999999999994      10.039999999999994
   168   1      5.0199999999999942      11.294999999999995      11.294999999999995
   169   1       6.274999999999995      10.039999999999994      11.294999999999995
   170   1       6.274999999999995      11.294999999999995      10.039999999999994
   171   1      5.0199999999999942      10.039999999999994      12.549999999999994
   172   1      5.0199999999999942      11.294999999999995      13.804999999999993
   173   1       6.274999999999995      10.039999999999994      13.804999999999993
   174   1       6.274999999999995      11.294999999999995      12.549999999999994
   175   1      5.0199999999999942      10.039999999999994      15.059999999999993
   176   1      5.0199999999999942      11.294999999999995      16.314999999999994
   177   1       6.274999999999995      10.039999999999994      16.314999999999994
   178   1       6.274999999999995      11.294999999999995      15.059999999999993
   179   1      5.0199999999999942      10.039999999999994      17.569999999999993
   180   1      5.0199999999999942      11.294999999999995      18.824999999999992
   181   1       6.274999999999995      10.039999999999994      18.824999999999992
   182   1       6.274999999999995      11.294999999999995      17.569999999999993
   183   1      5.0199999999999942      10.039999999999994      20.079999999999991
   184   1      5.0199999999999942      11.294999999999995      21.334999999999987
   185   1       6.274999999999995      10.039999999999994      21.334999999999987
   186   1       6.274999999999995      11.294999999999995      20.079999999999991
   187   1      5.0199999999999942      10.039999999999994      22.589999999999993
   188   1       6.274999999999995      10.039999999999994      23.844999999999992
   189   1       6.274999999999995      11.294999999999995      22.589999999999993
   190   1      5.0199999999999942      13.804999999999993       6.274999999999995
   191   1       6.274999999999995      12.549999999999994       6.274999999999995
   192   1       6.274999999999995      13.804999999999993      5.0199999999999942
   193   1      5.0199999999999942      12.549999999999994      7.5299999999999931
   194   1      5.0199999999999942      13.804999999999993       8.784999999999993
   195   1       6.274999999999995      12.549999999999994       8.784999999999993
   196   1       6.274999999999995      13.804999999999993      7.5299999999999931
   197   1      5.0199999999999942      12.549999999999994      10.039999999999994
   198   1      5.0199999999999942      13.804999999999993      11.294999999999995
   199   1       6.274999999999995      12.549999999999994      11.294999999999995
   200   1       6.274999999999995      13.804999999999993      10.039999999999994
   201   1      5.0199999999999942      12.549999999999994      12.549999999999994
   202   1      5.0199999999999942      13.804999999999993      13.804999999999993
   203   1       6.274999999999995      12.549999999999994      13.804999999999993
   204   1       6.274999999999995      13.804999999999993      12.549999999999994
   205   1      5.0199999999999942      12.549999999999994      15.059999999999993
   206   1      5.0199999999999942      13.804999999999993      16.314999999999994
   207   1       6.274999999999995      12.549999999999994      16.314999999999994
   208   1       6.274999999999995      13.804999999999993      15.059999999999993
   209   1      5.0199999999999942      12.549999999999994      17.569999999999993
   210   1      5.0199999999999942      13.804999999999993      18.824999999999992
   211   1       6.274999999999995      12.549999999999994      18.824999999999992
   212   1       6.274999999999995      13.804999999999993      17.569999999999993
   213   1      5.0199999999999942      12.549999999999994      20.079999999999991
   214   1      5.0199999999999942      13.804999999999993      21.334999999999987
   215   1       6.274999999999995      12.549999999999994      21.334999999999987
   216   1       6.274999999999995      13.804999999999993      20.079999999999991
   217   1      5.0199999999999942      12.549999999999994      22.589999999999993
   218   1      5.0199999999999942      13.804999999999993      23.844999999999992
   219   1       6.274999999999995      12.549999999999994      23.844999999999992
   220   1       6.274999999999995      13.804999999999993      22.589999999999993
   221   1       6.274999999999995      13.804999999999993      25.099999999999994
   222   1       6.274999999999995      15.059999999999993      3.7649999999999935
   223   1      5.0199999999999942      15.059999999999993      5.0199999999999942
   224   1      5.0199999999999942      16.314999999999994       6.274999999999995
   225   1       6.274999999999995      15.059999999999993       6.274999999999995
   226   1       6.274999999999995      16.314999999999994      5.0199999999999942
   227   1      5.0199999999999942      15.059999999999993      7.5299999999999931
   228   1      5.0199999999999942      16.314999999999994       8.784999999999993
   229   1       6.274999999999995      15.059999999999993       8.784999999999993
   230   1       6.274999999999995      16.314999999999994      7.5299999999999931
   231   1      5.0199999999999942      15.059999999999993      10.039999999999994
   232   1      5.0199999999999942      16.314999999999994      11.294999999999995
   233   1       6.274999999999995      15.059999999999993      11.294999999999995
   234   1       6.274999999999995      16.314999999999994      10.039999999999994
   235   1      5.0199999999999942      15.059999999999993      12.549999999999994
   236   1      5.0199999999999942      16.314999999999994      13.804999999999993
   237   1       6.274999999999995      15.059999999999993      13.804999999999993
   238   1       6.274999999999995      16.314999999999994      12.549999999999994
   239   1      5.0199999999999942      15.059999999999993      15.059999999999993
   240   1      5.0199999999999942      16.314999999999994      16.314999999999994
   241   1       6.274999999999995      15.059999999999993      16.314999999999994
   242   1       6.274999999999995      16.314999999999994      15.059999999999993
   243   1      5.0199999999999942      15.059999999999993      17.569999999999993
   244   1      5.0199999999999942      16.314999999999994      18.824999999999992
   245   1       6.274999999999995      15.059999999999993      18.824999999999992
   246   1       6.274999999999995      16.314999999999994      17.569999999999993
   247   1      5.0199999999999942      15.059999999999993      20.079999999999991
   248   1      5.0199999999999942      16.314999999999994      21.334999999999987
   249   1       6.274999999999995      15.059999999999993      21.334999999999987
   250   1       6.274999999999995      16.314999999999994      20.079999999999991
   251   1      5.0199999999999942      15.059999999999993      22.589999999999993
   252   1      5.0199999999999942      16.314999999999994      23.844999999999992
   253   1       6.274999999999995      15.059999999999993      23.844999999999992
   254   1       6.274999999999995      16.314999999999994      22.589999999999993
   255   1      5.0199999999999942      15.059999999999993      25.099999999999994
   256   1       6.274999999999995      15.059999999999993      26.354999999999993
   257   1       6.274999999999995      16.314999999999994      25.099999999999994
   258   1       6.274999999999995      17.569999999999993       6.274999999999995
   259   1      5.0199999999999942      17.569999999999993      7.5299999999999931
   260   1      5.0199999999999942      18.824999999999992       8.784999999999993
   261   1       6.274999999999995      17.569999999999993       8.784999999999993
   262   1       6.274999999999995      18.824999999999992      7.5299999999999931
   263   1      5.0199999999999942      17.569999999999993      10.039999999999994
   264   1      5.0199999999999942      18.824999999999992      11.294999999999995
   265   1       6.274999999999995      17.569999999999993      11.294999999999995
   266   1       6.274999999999995      18.824999999999992      10.039999999999994
   267   1      5.0199999999999942      17.569999999999993      12.549999999999994
   268   1      5.0199999999999942      18.824999999999992      13.804999999999993
   269   1       6.274999999999995      17.569999999999993      13.804999999999993
   270   1       6.274999999999995      18.824999999999992      12.549999999999994
   271   1      5.0199999999999942      17.569999999999993      15.059999999999993
   272   1      5.0199999999999942      18.824999999999992      16.314999999999994
   273   1       6.274999999999995      17.569999999999993      16.314999999999994
   274   1       6.274999999999995      18.824999999999992      15.059999999999993
   275   1      5.0199999999999942      17.569999999999993      17.569999999999993
   276   1      5.0199999999999942      18.824999999999992      18.824999999999992
   277   1       6.274999999999995      17.569999999999993      18.824999999999992
   278   1       6.274999999999995      18.824999999999992      17.569999999999993
   279   1      5.0199999999999942      17.569999999999993      20.079999999999991
   280   1      5.0199999999999942      18.824999999999992      21.334999999999987
   281   1       6.274999999999995      17.569999999999993      21.334999999999987
   282   1       6.274999999999995      18.824999999999992      20.079999999999991
   283   1      5.0199999999999942      17.569999999999993      22.589999999999993
   284   1       6.274999999999995      17.569999999999993      23.844999999999992
   285   1       6.274999999999995      18.824999999999992      22.589999999999993
   286   1       6.274999999999995      20.079999999999991       6.274999999999995
   287   1      5.0199999999999942      20.079999999999991      7.5299999999999931
   288   1      5.0199999999999942      21.334999999999987       8.784999999999993
   289   1       6.274999999999995      20.079999999999991       8.784999999999993
   290   1       6.274999999999995      21.334999999999987      7.5299999999999931
   291   1      5.0199999999999942      20.079999999999991      10.039999999999994
   292   1      5.0199999999999942      21.334999999999987      11.294999999999995
   293   1       6.274999999999995      20.079999999999991      11.294999999999995
   294   1       6.274999999999995      21.334999999999987      10.039999999999994
   295   1      5.0199999999999942      20.079999999999991      12.549999999999994
   296   1      5.0199999999999942      21.334999999999987      13.804999999999993
   297   1       6.274999999999995      20.079999999999991      13.804999999999993
   298   1       6.274999999999995      21.334999999999987      12.549999999999994
   299   1      5.0199999999999942      20.079999999999991      15.059999999999993
   300   1      5.0199999999999942      21.334999999999987      16.314999999999994
   301   1       6.274999999999995      20.079999999999991      16.314999999999994
   302   1       6.274999999999995      21.334999999999987      15.059999999999993
   303   1      5.0199999999999942      20.079999999999991      17.569999999999993
   304   1      5.0199999999999942      21.334999999999987      18.824999999999992
   305   1       6.274999999999995      20.079999999999991      18.824999999999992
   306   1       6.274999999999995      21.334999999999987      17.569999999999993
   307   1      5.0199999999999942      20.079999999999991      20.079999999999991
   308   1      5.0199999999999942      21.334999999999987      21.334999999999987
   309   1       6.274999999999995      20.079999999999991      21.334999999999987
   310   1       6.274999999999995      21.334999999999987      20.079999999999991
   311   1      5.0199999999999942      20.079999999999991      22.589999999999993
   312   1       6.274999999999995      20.079999999999991      23.844999999999992
   313   1       6.274999999999995      21.334999999999987      22.589999999999993
   314   1       6.274999999999995      22.589999999999993       8.784999999999993
   315   1      5.0199999999999942      22.589999999999993      10.039999999999994
   316   1       6.274999999999995      22.589999999999993      11.294999999999995
   317   1       6.274999999999995      23.844999999999992      10.039999999999994
   318   1      5.0199999999999942      22.589999999999993      12.549999999999994
   319   1      5.0199999999999942      23.844999999999992      13.804999999999993
   320   1       6.274999999999995      22.589999999999993      13.804999999999993
   321   1       6.274999999999995      23.844999999999992      12.549999999999994
   322   1      5.0199999999999942      22.589999999999993      15.059999999999993
   323   1      5.0199999999999942      23.844999999999992      16.314999999999994
   324   1       6.274999999999995      22.589999999999993      16.314999999999994
   325   1       6.274999999999995      23.844999999999992      15.059999999999993
   326   1      5.0199999999999942      22.589999999999993      17.569999999999993
   327   1       6.274999999999995      22.589999999999993      18.824999999999992
   328   1       6.274999999999995      23.844999999999992      17.569999999999993
   329   1      5.0199999999999942      22.589999999999993      20.079999999999991
   330   1       6.274999999999995      22.589999999999993      21.334999999999987
   331   1       6.274999999999995      23.844999999999992      20.079999999999991
   332   1       6.274999999999995      25.099999999999994      13.804999999999993
   333   1      5.0199999999999942      25.099999999999994      15.059999999999993
   334   1       6.274999999999995      25.099999999999994      16.314999999999994
   335   1       6.274999999999995      26.354999999999993      15.059999999999993
   336   1      7.5299999999999931      3.7649999999999935      13.804999999999993
   337   1       8.784999999999993      3.7649999999999935      12.549999999999994
   338   1      7.5299999999999931      3.7649999999999935      16.314999999999994
   339   1       8.784999999999993      3.7649999999999935      15.059999999999993
   340   1       8.784999999999993      3.7649999999999935      17.569999999999993
   341   1      7.5299999999999931       6.274999999999995       8.784999999999993
   342   1       8.784999999999993      5.0199999999999942       8.784999999999993
   343   1       8.784999999999993       6.274999999999995      7.5299999999999931
   344   1      7.5299999999999931      5.0199999999999942      10.039999999999994
   345   1      7.5299999999999931       6.274999999999995      11.294999999999995
   346   1       8.784999999999993      5.0199999999999942      11.294999999999995
   347   1       8.784999999999993       6.274999999999995      10.039999999999994
   348   1      7.5299999999999931      5.0199999999999942      12.549999999999994
   349   1      7.5299999999999931       6.274999999999995      13.804999999999993
   350   1       8.784999999999993      5.0199999999999942      13.804999999999993
   351   1       8.784999999999993       6.274999999999995      12.549999999999994
   352   1      7.5299999999999931      5.0199999999999942      15.059999999999993
   353   1      7.5299999999999931       6.274999999999995      16.314999999999994
   354   1       8.784999999999993      5.0199999999999942      16.314999999999994
   355   1       8.784999999999993       6.274999999999995      15.059999999999993
   356   1      7.5299999999999931      5.0199999999999942      17.569999999999993
   357   1      7.5299999999999931       6.274999999999995      18.824999999999992
   358   1       8.784999999999993      5.0199999999999942      18.824999999999992