model_files/PdCu/PdCu_30000/PdCu_540/PdCu_540_fcc_29765_temp.data (written by ASE) 

29765 	 atoms 
2  atom types
0.0                     107  xlo xhi
0.0                     107  ylo yhi
0.0                     107  zlo zhi


Atoms 

     1   1      106.99999999999999      50.962499999999999      50.962499999999999
     2   1      1.8874999999999955      49.074999999999996      50.962499999999999
     3   1      1.8874999999999955      50.962499999999999      49.074999999999996
     4   1      106.99999999999999      50.962499999999999      54.737499999999997
     5   1      1.8874999999999955      49.074999999999996      54.737499999999997
     6   1      1.8874999999999955      50.962499999999999      52.849999999999994
     7   1      1.8874999999999955      50.962499999999999      56.624999999999986
     8   1      106.99999999999999      54.737499999999997      50.962499999999999
     9   1      1.8874999999999955      52.849999999999994      50.962499999999999
    10   1      1.8874999999999955      54.737499999999997      49.074999999999996
    11   1      106.99999999999999      52.849999999999994      52.849999999999994
    12   1      106.99999999999999      54.737499999999997      54.737499999999997
    13   1      1.8874999999999955      52.849999999999994      54.737499999999997
    14   1      1.8874999999999955      54.737499999999997      52.849999999999994
    15   1      1.8874999999999955      54.737499999999997      56.624999999999986
    16   1      1.8874999999999955      56.624999999999986      50.962499999999999
    17   1      1.8874999999999955      56.624999999999986      54.737499999999997
    18   1       3.774999999999991      47.187499999999986      47.187499999999986
    19   1      5.6624999999999934      45.299999999999983      47.187499999999986
    20   1      5.6624999999999934      47.187499999999986      45.299999999999983
    21   1       3.774999999999991      47.187499999999986      50.962499999999999
    22   1      5.6624999999999934      45.299999999999983      50.962499999999999
    23   1      5.6624999999999934      47.187499999999986      49.074999999999996
    24   1       3.774999999999991      47.187499999999986      54.737499999999997
    25   1      5.6624999999999934      45.299999999999983      54.737499999999997
    26   1      5.6624999999999934      47.187499999999986      52.849999999999994
    27   1       3.774999999999991      47.187499999999986      58.512499999999989
    28   1      5.6624999999999934      45.299999999999983      58.512499999999989
    29   1      5.6624999999999934      47.187499999999986      56.624999999999986
    30   1      5.6624999999999934      47.187499999999986      60.399999999999984
    31   1       3.774999999999991      50.962499999999999      47.187499999999986
    32   1      5.6624999999999934      49.074999999999996      47.187499999999986
    33   1      5.6624999999999934      50.962499999999999      45.299999999999983
    34   1       3.774999999999991      49.074999999999996      49.074999999999996
    35   1       3.774999999999991      50.962499999999999      50.962499999999999
    36   1      5.6624999999999934      49.074999999999996      50.962499999999999
    37   1      5.6624999999999934      50.962499999999999      49.074999999999996
    38   1       3.774999999999991      49.074999999999996      52.849999999999994
    39   1       3.774999999999991      50.962499999999999      54.737499999999997
    40   1      5.6624999999999934      49.074999999999996      54.737499999999997
    41   1      5.6624999999999934      50.962499999999999      52.849999999999994
    42   1       3.774999999999991      49.074999999999996      56.624999999999986
    43   1       3.774999999999991      50.962499999999999      58.512499999999989
    44   1      5.6624999999999934      49.074999999999996      58.512499999999989
    45   1      5.6624999999999934      50.962499999999999      56.624999999999986
    46   1      5.6624999999999934      50.962499999999999      60.399999999999984
    47   1       3.774999999999991      54.737499999999997      47.187499999999986
    48   1      5.6624999999999934      52.849999999999994      47.187499999999986
    49   1      5.6624999999999934      54.737499999999997      45.299999999999983
    50   1       3.774999999999991      52.849999999999994      49.074999999999996
    51   1       3.774999999999991      54.737499999999997      50.962499999999999
    52   1      5.6624999999999934      52.849999999999994      50.962499999999999
    53   1      5.6624999999999934      54.737499999999997      49.074999999999996
    54   1       3.774999999999991      52.849999999999994      52.849999999999994
    55   1       3.774999999999991      54.737499999999997      54.737499999999997
    56   1      5.6624999999999934      52.849999999999994      54.737499999999997
    57   1      5.6624999999999934      54.737499999999997      52.849999999999994
    58   1       3.774999999999991      52.849999999999994      56.624999999999986
    59   1       3.774999999999991      54.737499999999997      58.512499999999989
    60   1      5.6624999999999934      52.849999999999994      58.512499999999989
    61   1      5.6624999999999934      54.737499999999997      56.624999999999986
    62   1      5.6624999999999934      54.737499999999997      60.399999999999984
    63   1       3.774999999999991      58.512499999999989      47.187499999999986
    64   1      5.6624999999999934      56.624999999999986      47.187499999999986
    65   1      5.6624999999999934      58.512499999999989      45.299999999999983
    66   1       3.774999999999991      56.624999999999986      49.074999999999996
    67   1       3.774999999999991      58.512499999999989      50.962499999999999
    68   1      5.6624999999999934      56.624999999999986      50.962499999999999
    69   1      5.6624999999999934      58.512499999999989      49.074999999999996
    70   1       3.774999999999991      56.624999999999986      52.849999999999994
    71   1       3.774999999999991      58.512499999999989      54.737499999999997
    72   1      5.6624999999999934      56.624999999999986      54.737499999999997
    73   1      5.6624999999999934      58.512499999999989      52.849999999999994
    74   1       3.774999999999991      56.624999999999986      56.624999999999986
    75   1       3.774999999999991      58.512499999999989      58.512499999999989
    76   1      5.6624999999999934      56.624999999999986      58.512499999999989
    77   1      5.6624999999999934      58.512499999999989      56.624999999999986
    78   1      5.6624999999999934      58.512499999999989      60.399999999999984
    79   1      5.6624999999999934      60.399999999999984      47.187499999999986
    80   1      5.6624999999999934      60.399999999999984      50.962499999999999
    81   1      5.6624999999999934      60.399999999999984      54.737499999999997
    82   1      5.6624999999999934      60.399999999999984      58.512499999999989
    83   1      9.4374999999999929      39.637499999999989      41.524999999999984
    84   1      9.4374999999999929      39.637499999999989      45.299999999999983
    85   1      9.4374999999999929      39.637499999999989      49.074999999999996
    86   1      9.4374999999999929      39.637499999999989      52.849999999999994
    87   1      9.4374999999999929      39.637499999999989      56.624999999999986
    88   1      9.4374999999999929      39.637499999999989      60.399999999999984
    89   1      9.4374999999999929      39.637499999999989      64.174999999999997
    90   1      9.4374999999999929      41.524999999999984      39.637499999999989
    91   1      7.5499999999999972      41.524999999999984      41.524999999999984
    92   1      7.5499999999999972      43.412499999999987      43.412499999999987
    93   1      9.4374999999999929      41.524999999999984      43.412499999999987
    94   1      9.4374999999999929      43.412499999999987      41.524999999999984
    95   1      7.5499999999999972      41.524999999999984      45.299999999999983
    96   1      7.5499999999999972      43.412499999999987      47.187499999999986
    97   1      9.4374999999999929      41.524999999999984      47.187499999999986
    98   1      9.4374999999999929      43.412499999999987      45.299999999999983
    99   1      7.5499999999999972      41.524999999999984      49.074999999999996
   100   1      7.5499999999999972      43.412499999999987      50.962499999999999
   101   1      9.4374999999999929      41.524999999999984      50.962499999999999
   102   1      9.4374999999999929      43.412499999999987      49.074999999999996
   103   1      7.5499999999999972      41.524999999999984      52.849999999999994
   104   1      7.5499999999999972      43.412499999999987      54.737499999999997
   105   1      9.4374999999999929      41.524999999999984      54.737499999999997
   106   1      9.4374999999999929      43.412499999999987      52.849999999999994
   107   1      7.5499999999999972      41.524999999999984      56.624999999999986
   108   1      7.5499999999999972      43.412499999999987      58.512499999999989
   109   1      9.4374999999999929      41.524999999999984      58.512499999999989
   110   1      9.4374999999999929      43.412499999999987      56.624999999999986
   111   1      7.5499999999999972      41.524999999999984      60.399999999999984
   112   1      7.5499999999999972      43.412499999999987      62.287499999999987
   113   1      9.4374999999999929      41.524999999999984      62.287499999999987
   114   1      9.4374999999999929      43.412499999999987      60.399999999999984
   115   1      7.5499999999999972      41.524999999999984      64.174999999999997
   116   1      9.4374999999999929      41.524999999999984                 66.0625
   117   1      9.4374999999999929      43.412499999999987      64.174999999999997
   118   1      9.4374999999999929      45.299999999999983      39.637499999999989
   119   1      7.5499999999999972      45.299999999999983      41.524999999999984
   120   1      7.5499999999999972      47.187499999999986      43.412499999999987
   121   1      9.4374999999999929      45.299999999999983      43.412499999999987
   122   1      9.4374999999999929      47.187499999999986      41.524999999999984
   123   1      7.5499999999999972      45.299999999999983      45.299999999999983
   124   1      7.5499999999999972      47.187499999999986      47.187499999999986
   125   1      9.4374999999999929      45.299999999999983      47.187499999999986
   126   1      9.4374999999999929      47.187499999999986      45.299999999999983
   127   1      7.5499999999999972      45.299999999999983      49.074999999999996
   128   1      7.5499999999999972      47.187499999999986      50.962499999999999
   129   1      9.4374999999999929      45.299999999999983      50.962499999999999
   130   1      9.4374999999999929      47.187499999999986      49.074999999999996
   131   1      7.5499999999999972      45.299999999999983      52.849999999999994
   132   1      7.5499999999999972      47.187499999999986      54.737499999999997
   133   1      9.4374999999999929      45.299999999999983      54.737499999999997
   134   1      9.4374999999999929      47.187499999999986      52.849999999999994
   135   1      7.5499999999999972      45.299999999999983      56.624999999999986
   136   1      7.5499999999999972      47.187499999999986      58.512499999999989
   137   1      9.4374999999999929      45.299999999999983      58.512499999999989
   138   1      9.4374999999999929      47.187499999999986      56.624999999999986
   139   1      7.5499999999999972      45.299999999999983      60.399999999999984
   140   1      7.5499999999999972      47.187499999999986      62.287499999999987
   141   1      9.4374999999999929      45.299999999999983      62.287499999999987
   142   1      9.4374999999999929      47.187499999999986      60.399999999999984
   143   1      7.5499999999999972      45.299999999999983      64.174999999999997
   144   1      9.4374999999999929      45.299999999999983                 66.0625
   145   1      9.4374999999999929      47.187499999999986      64.174999999999997
   146   1      9.4374999999999929      49.074999999999996      39.637499999999989
   147   1      7.5499999999999972      49.074999999999996      41.524999999999984
   148   1      7.5499999999999972      50.962499999999999      43.412499999999987
   149   1      9.4374999999999929      49.074999999999996      43.412499999999987
   150   1      9.4374999999999929      50.962499999999999      41.524999999999984
   151   1      7.5499999999999972      49.074999999999996      45.299999999999983
   152   1      7.5499999999999972      50.962499999999999      47.187499999999986
   153   1      9.4374999999999929      49.074999999999996      47.187499999999986
   154   1      9.4374999999999929      50.962499999999999      45.299999999999983
   155   1      7.5499999999999972      49.074999999999996      49.074999999999996
   156   1      7.5499999999999972      50.962499999999999      50.962499999999999
   157   1      9.4374999999999929      49.074999999999996      50.962499999999999
   158   1      9.4374999999999929      50.962499999999999      49.074999999999996
   159   1      7.5499999999999972      49.074999999999996      52.849999999999994
   160   1      7.5499999999999972      50.962499999999999      54.737499999999997
   161   1      9.4374999999999929      49.074999999999996      54.737499999999997
   162   1      9.4374999999999929      50.962499999999999      52.849999999999994
   163   1      7.5499999999999972      49.074999999999996      56.624999999999986
   164   1      7.5499999999999972      50.962499999999999      58.512499999999989
   165   1      9.4374999999999929      49.074999999999996      58.512499999999989
   166   1      9.4374999999999929      50.962499999999999      56.624999999999986
   167   1      7.5499999999999972      49.074999999999996      60.399999999999984
   168   1      7.5499999999999972      50.962499999999999      62.287499999999987
   169   1      9.4374999999999929      49.074999999999996      62.287499999999987
   170   1      9.4374999999999929      50.962499999999999      60.399999999999984
   171   1      7.5499999999999972      49.074999999999996      64.174999999999997
   172   1      9.4374999999999929      49.074999999999996                 66.0625
   173   1      9.4374999999999929      50.962499999999999      64.174999999999997
   174   1      9.4374999999999929      52.849999999999994      39.637499999999989
   175   1      7.5499999999999972      52.849999999999994      41.524999999999984
   176   1      7.5499999999999972      54.737499999999997      43.412499999999987
   177   1      9.4374999999999929      52.849999999999994      43.412499999999987
   178   1      9.4374999999999929      54.737499999999997      41.524999999999984
   179   1      7.5499999999999972      52.849999999999994      45.299999999999983
   180   1      7.5499999999999972      54.737499999999997      47.187499999999986
   181   1      9.4374999999999929      52.849999999999994      47.187499999999986
   182   1      9.4374999999999929      54.737499999999997      45.299999999999983
   183   1      7.5499999999999972      52.849999999999994      49.074999999999996
   184   1      7.5499999999999972      54.737499999999997      50.962499999999999
   185   1      9.4374999999999929      52.849999999999994      50.962499999999999
   186   1      9.4374999999999929      54.737499999999997      49.074999999999996
   187   1      7.5499999999999972      52.849999999999994      52.849999999999994
   188   1      7.5499999999999972      54.737499999999997      54.737499999999997
   189   1      9.4374999999999929      52.849999999999994      54.737499999999997
   190   1      9.4374999999999929      54.737499999999997      52.849999999999994
   191   1      7.5499999999999972      52.849999999999994      56.624999999999986
   192   1      7.5499999999999972      54.737499999999997      58.512499999999989
   193   1      9.4374999999999929      52.849999999999994      58.512499999999989
   194   1      9.4374999999999929      54.737499999999997      56.624999999999986
   195   1      7.5499999999999972      52.849999999999994      60.399999999999984
   196   1      7.5499999999999972      54.737499999999997      62.287499999999987
   197   1      9.4374999999999929      52.849999999999994      62.287499999999987
   198   1      9.4374999999999929      54.737499999999997      60.399999999999984
   199   1      7.5499999999999972      52.849999999999994      64.174999999999997
   200   1      9.4374999999999929      52.849999999999994                 66.0625
   201   1      9.4374999999999929      54.737499999999997      64.174999999999997
   202   1      9.4374999999999929      56.624999999999986      39.637499999999989
   203   1      7.5499999999999972      56.624999999999986      41.524999999999984
   204   1      7.5499999999999972      58.512499999999989      43.412499999999987
   205   1      9.4374999999999929      56.624999999999986      43.412499999999987
   206   1      9.4374999999999929      58.512499999999989      41.524999999999984
   207   1      7.5499999999999972      56.624999999999986      45.299999999999983
   208   1      7.5499999999999972      58.512499999999989      47.187499999999986
   209   1      9.4374999999999929      56.624999999999986      47.187499999999986
   210   1      9.4374999999999929      58.512499999999989      45.299999999999983
   211   1      7.5499999999999972      56.624999999999986      49.074999999999996
   212   1      7.5499999999999972      58.512499999999989      50.962499999999999
   213   1      9.4374999999999929      56.624999999999986      50.962499999999999
   214   1      9.4374999999999929      58.512499999999989      49.074999999999996
   215   1      7.5499999999999972      56.624999999999986      52.849999999999994
   216   1      7.5499999999999972      58.512499999999989      54.737499999999997
   217   1      9.4374999999999929      56.624999999999986      54.737499999999997
   218   1      9.4374999999999929      58.512499999999989      52.849999999999994
   219   1      7.5499999999999972      56.624999999999986      56.624999999999986
   220   1      7.5499999999999972      58.512499999999989      58.512499999999989
   221   1      9.4374999999999929      56.624999999999986      58.512499999999989
   222   1      9.4374999999999929      58.512499999999989      56.624999999999986
   223   1      7.5499999999999972      56.624999999999986      60.399999999999984
   224   1      7.5499999999999972      58.512499999999989      62.287499999999987
   225   1      9.4374999999999929      56.624999999999986      62.287499999999987
   226   1      9.4374999999999929      58.512499999999989      60.399999999999984
   227   1      7.5499999999999972      56.624999999999986      64.174999999999997
   228   1      9.4374999999999929      56.624999999999986                 66.0625
   229   1      9.4374999999999929      58.512499999999989      64.174999999999997
   230   1      9.4374999999999929      60.399999999999984      39.637499999999989
   231   1      7.5499999999999972      60.399999999999984      41.524999999999984
   232   1      7.5499999999999972      62.287499999999987      43.412499999999987
   233   1      9.4374999999999929      60.399999999999984      43.412499999999987
   234   1      9.4374999999999929      62.287499999999987      41.524999999999984
   235   1      7.5499999999999972      60.399999999999984      45.299999999999983
   236   1      7.5499999999999972      62.287499999999987      47.187499999999986
   237   1      9.4374999999999929      60.399999999999984      47.187499999999986
   238   1      9.4374999999999929      62.287499999999987      45.299999999999983
   239   1      7.5499999999999972      60.399999999999984      49.074999999999996
   240   1      7.5499999999999972      62.287499999999987      50.962499999999999
   241   1      9.4374999999999929      60.399999999999984      50.962499999999999
   242   1      9.4374999999999929      62.287499999999987      49.074999999999996
   243   1      7.5499999999999972      60.399999999999984      52.849999999999994
   244   1      7.5499999999999972      62.287499999999987      54.737499999999997
   245   1      9.4374999999999929      60.399999999999984      54.737499999999997
   246   1      9.4374999999999929      62.287499999999987      52.849999999999994
   247   1      7.5499999999999972      60.399999999999984      56.624999999999986
   248   1      7.5499999999999972      62.287499999999987      58.512499999999989
   249   1      9.4374999999999929      60.399999999999984      58.512499999999989
   250   1      9.4374999999999929      62.287499999999987      56.624999999999986
   251   1      7.5499999999999972      60.399999999999984      60.399999999999984
   252   1      7.5499999999999972      62.287499999999987      62.287499999999987
   253   1      9.4374999999999929      60.399999999999984      62.287499999999987
   254   1      9.4374999999999929      62.287499999999987      60.399999999999984
   255   1      7.5499999999999972      60.399999999999984      64.174999999999997
   256   1      9.4374999999999929      60.399999999999984                 66.0625
   257   1      9.4374999999999929      62.287499999999987      64.174999999999997
   258   1      9.4374999999999929      64.174999999999997      39.637499999999989
   259   1      7.5499999999999972      64.174999999999997      41.524999999999984
   260   1      9.4374999999999929      64.174999999999997      43.412499999999987
   261   1      9.4374999999999929                 66.0625      41.524999999999984
   262   1      7.5499999999999972      64.174999999999997      45.299999999999983
   263   1      9.4374999999999929      64.174999999999997      47.187499999999986
   264   1      9.4374999999999929                 66.0625      45.299999999999983
   265   1      7.5499999999999972      64.174999999999997      49.074999999999996
   266   1      9.4374999999999929      64.174999999999997      50.962499999999999
   267   1      9.4374999999999929                 66.0625      49.074999999999996
   268   1      7.5499999999999972      64.174999999999997      52.849999999999994
   269   1      9.4374999999999929      64.174999999999997      54.737499999999997
   270   1      9.4374999999999929                 66.0625      52.849999999999994
   271   1      7.5499999999999972      64.174999999999997      56.624999999999986
   272   1      9.4374999999999929      64.174999999999997      58.512499999999989
   273   1      9.4374999999999929                 66.0625      56.624999999999986
   274   1      7.5499999999999972      64.174999999999997      60.399999999999984
   275   1      9.4374999999999929      64.174999999999997      62.287499999999987
   276   1      9.4374999999999929                 66.0625      60.399999999999984
   277   1      7.5499999999999972      64.174999999999997      64.174999999999997
   278   1      9.4374999999999929      64.174999999999997                 66.0625
   279   1      9.4374999999999929                 66.0625      64.174999999999997
   280   1      13.212499999999991       35.86249999999999      37.749999999999986
   281   1      13.212499999999991       35.86249999999999      41.524999999999984
   282   1      13.212499999999991       35.86249999999999      45.299999999999983
   283   1      13.212499999999991       35.86249999999999      49.074999999999996
   284   1      13.212499999999991       35.86249999999999      52.849999999999994
   285   1      13.212499999999991       35.86249999999999      56.624999999999986
   286   1      13.212499999999991       35.86249999999999      60.399999999999984
   287   1      13.212499999999991       35.86249999999999      64.174999999999997
   288   1      13.212499999999991       35.86249999999999      67.949999999999989
   289   1      13.212499999999991      37.749999999999986       35.86249999999999
   290   1      11.324999999999994      37.749999999999986      37.749999999999986
   291   1      11.324999999999994      39.637499999999989      39.637499999999989
   292   1      13.212499999999991      37.749999999999986      39.637499999999989
   293   1      13.212499999999991      39.637499999999989      37.749999999999986
   294   1      11.324999999999994      37.749999999999986      41.524999999999984
   295   1      11.324999999999994      39.637499999999989      43.412499999999987
   296   1      13.212499999999991      37.749999999999986      43.412499999999987
   297   1      13.212499999999991      39.637499999999989      41.524999999999984
   298   1      11.324999999999994      37.749999999999986      45.299999999999983
   299   1      11.324999999999994      39.637499999999989      47.187499999999986
   300   1      13.212499999999991      37.749999999999986      47.187499999999986
   301   1      13.212499999999991      39.637499999999989      45.299999999999983
   302   1      11.324999999999994      37.749999999999986      49.074999999999996
   303   1      11.324999999999994      39.637499999999989      50.962499999999999
   304   1      13.212499999999991      37.749999999999986      50.962499999999999
   305   1      13.212499999999991      39.637499999999989      49.074999999999996
   306   1      11.324999999999994      37.749999999999986      52.849999999999994
   307   1      11.324999999999994      39.637499999999989      54.737499999999997
   308   1      13.212499999999991      37.749999999999986      54.737499999999997
   309   1      13.212499999999991      39.637499999999989      52.849999999999994
   310   1      11.324999999999994      37.749999999999986      56.624999999999986
   311   1      11.324999999999994      39.637499999999989      58.512499999999989
   312   1      13.212499999999991      37.749999999999986      58.512499999999989
   313   1      13.212499999999991      39.637499999999989      56.624999999999986
   314   1      11.324999999999994      37.749999999999986      60.399999999999984
   315   1      11.324999999999994      39.637499999999989      62.287499999999987
   316   1      13.212499999999991      37.749999999999986      62.287499999999987
   317   1      13.212499999999991      39.637499999999989      60.399999999999984
   318   1      11.324999999999994      37.749999999999986      64.174999999999997
   319   1      11.324999999999994      39.637499999999989                 66.0625
   320   1      13.212499999999991      37.749999999999986                 66.0625
   321   1      13.212499999999991      39.637499999999989      64.174999999999997
   322   1      11.324999999999994      37.749999999999986      67.949999999999989
   323   1      13.212499999999991      37.749999999999986      69.837499999999991
   324   1      13.212499999999991      39.637499999999989      67.949999999999989
   325   1      13.212499999999991      41.524999999999984       35.86249999999999
   326   1      11.324999999999994      41.524999999999984      37.749999999999986
   327   1      11.324999999999994      43.412499999999987      39.637499999999989
   328   1      13.212499999999991      41.524999999999984      39.637499999999989
   329   1      13.212499999999991      43.412499999999987      37.749999999999986
   330   1      11.324999999999994      41.524999999999984      41.524999999999984
   331   1      11.324999999999994      43.412499999999987      43.412499999999987
   332   1      13.212499999999991      41.524999999999984      43.412499999999987
   333   1      13.212499999999991      43.412499999999987      41.524999999999984
   334   1      11.324999999999994      41.524999999999984      45.299999999999983
   335   1      11.324999999999994      43.412499999999987      47.187499999999986
   336   1      13.212499999999991      41.524999999999984      47.187499999999986
   337   1      13.212499999999991      43.412499999999987      45.299999999999983
   338   1      11.324999999999994      41.524999999999984      49.074999999999996
   339   1      11.324999999999994      43.412499999999987      50.962499999999999
   340   1      13.212499999999991      41.524999999999984      50.962499999999999
   341   1      13.212499999999991      43.412499999999987      49.074999999999996
   342   1      11.324999999999994      41.524999999999984      52.849999999999994
   343   1      11.324999999999994      43.412499999999987      54.737499999999997
   344   1      13.212499999999991      41.524999999999984      54.737499999999997
   345   1      13.212499999999991      43.412499999999987      52.849999999999994
   346   1      11.324999999999994      41.524999999999984      56.624999999999986
   347   1      11.324999999999994      43.412499999999987      58.512499999999989
   348   1      13.212499999999991      41.524999999999984      58.512499999999989
   349   1      13.212499999999991      43.412499999999987      56.624999999999986
   350   1      11.324999999999994      41.524999999999984      60.399999999999984
   351   1      11.324999999999994      43.412499999999987      62.287499999999987
   352   1      13.212499999999991      41.524999999999984      62.287499999999987
   353   1      13.212499999999991      43.412499999999987      60.399999999999984
   354   1      11.324999999999994      41.524999999999984      64.174999999999997
   355   1      11.324999999999994      43.412499999999987                 66.0625
   356   1      13.212499999999991      41.524999999999984                 66.0625
   357   1      13.212499999999991      43.412499999999987      64.174999999999997
   358   1      11.324999999999994      41.524999999999984      67.949999999999989