model_files/Fe/Fe_30000/Fe_221/data.Fe_221_bcc_29329 (written by ASE) 

29329 	 atoms 
1  atom types
0.0                      93  xlo xhi
0.0                      93  ylo yhi
0.0                      93  zlo zhi


Atoms 

     1   1      1.4350000000000096      44.485000000000014      45.920000000000009
     2   1      1.4350000000000096      45.920000000000009      44.485000000000014
     3   1  7.1054273576010019e-15      45.920000000000009      45.920000000000009
     4   1      1.4350000000000096      45.920000000000009      47.355000000000004
     5   1      1.4350000000000096      47.355000000000004      45.920000000000009
     6   1      4.3050000000000068      41.615000000000016      43.050000000000011
     7   1      4.3050000000000068      41.615000000000016      45.920000000000009
     8   1      4.3050000000000068      41.615000000000016      48.790000000000013
     9   1      4.3050000000000068      43.050000000000011      41.615000000000016
    10   1      2.8700000000000121      43.050000000000011      43.050000000000011
    11   1      2.8700000000000121      44.485000000000014      44.485000000000014
    12   1      4.3050000000000068      43.050000000000011      44.485000000000014
    13   1      4.3050000000000068      44.485000000000014      43.050000000000011
    14   1      2.8700000000000121      43.050000000000011      45.920000000000009
    15   1      2.8700000000000121      44.485000000000014      47.355000000000004
    16   1      4.3050000000000068      43.050000000000011      47.355000000000004
    17   1      4.3050000000000068      44.485000000000014      45.920000000000009
    18   1      2.8700000000000121      43.050000000000011      48.790000000000013
    19   1      4.3050000000000068      43.050000000000011      50.225000000000009
    20   1      4.3050000000000068      44.485000000000014      48.790000000000013
    21   1      4.3050000000000068      45.920000000000009      41.615000000000016
    22   1      2.8700000000000121      45.920000000000009      43.050000000000011
    23   1      2.8700000000000121      47.355000000000004      44.485000000000014
    24   1      4.3050000000000068      45.920000000000009      44.485000000000014
    25   1      4.3050000000000068      47.355000000000004      43.050000000000011
    26   1      2.8700000000000121      45.920000000000009      45.920000000000009
    27   1      2.8700000000000121      47.355000000000004      47.355000000000004
    28   1      4.3050000000000068      45.920000000000009      47.355000000000004
    29   1      4.3050000000000068      47.355000000000004      45.920000000000009
    30   1      2.8700000000000121      45.920000000000009      48.790000000000013
    31   1      4.3050000000000068      45.920000000000009      50.225000000000009
    32   1      4.3050000000000068      47.355000000000004      48.790000000000013
    33   1      4.3050000000000068      48.790000000000013      41.615000000000016
    34   1      2.8700000000000121      48.790000000000013      43.050000000000011
    35   1      4.3050000000000068      48.790000000000013      44.485000000000014
    36   1      4.3050000000000068      50.225000000000009      43.050000000000011
    37   1      2.8700000000000121      48.790000000000013      45.920000000000009
    38   1      4.3050000000000068      48.790000000000013      47.355000000000004
    39   1      4.3050000000000068      50.225000000000009      45.920000000000009
    40   1      2.8700000000000121      48.790000000000013      48.790000000000013
    41   1      4.3050000000000068      48.790000000000013      50.225000000000009
    42   1      4.3050000000000068      50.225000000000009      48.790000000000013
    43   1      7.1750000000000114      38.745000000000005      43.050000000000011
    44   1      7.1750000000000114      38.745000000000005      45.920000000000009
    45   1      7.1750000000000114      38.745000000000005      48.790000000000013
    46   1        5.74000000000001      41.615000000000016      41.615000000000016
    47   1      7.1750000000000114      40.180000000000014      41.615000000000016
    48   1      7.1750000000000114      41.615000000000016      40.180000000000014
    49   1        5.74000000000001      40.180000000000014      43.050000000000011
    50   1        5.74000000000001      41.615000000000016      44.485000000000014
    51   1      7.1750000000000114      40.180000000000014      44.485000000000014
    52   1      7.1750000000000114      41.615000000000016      43.050000000000011
    53   1        5.74000000000001      40.180000000000014      45.920000000000009
    54   1        5.74000000000001      41.615000000000016      47.355000000000004
    55   1      7.1750000000000114      40.180000000000014      47.355000000000004
    56   1      7.1750000000000114      41.615000000000016      45.920000000000009
    57   1        5.74000000000001      40.180000000000014      48.790000000000013
    58   1        5.74000000000001      41.615000000000016      50.225000000000009
    59   1      7.1750000000000114      40.180000000000014      50.225000000000009
    60   1      7.1750000000000114      41.615000000000016      48.790000000000013
    61   1      7.1750000000000114      41.615000000000016      51.660000000000004
    62   1      7.1750000000000114      43.050000000000011      38.745000000000005
    63   1        5.74000000000001      43.050000000000011      40.180000000000014
    64   1        5.74000000000001      44.485000000000014      41.615000000000016
    65   1      7.1750000000000114      43.050000000000011      41.615000000000016
    66   1      7.1750000000000114      44.485000000000014      40.180000000000014
    67   1        5.74000000000001      43.050000000000011      43.050000000000011
    68   1        5.74000000000001      44.485000000000014      44.485000000000014
    69   1      7.1750000000000114      43.050000000000011      44.485000000000014
    70   1      7.1750000000000114      44.485000000000014      43.050000000000011
    71   1        5.74000000000001      43.050000000000011      45.920000000000009
    72   1        5.74000000000001      44.485000000000014      47.355000000000004
    73   1      7.1750000000000114      43.050000000000011      47.355000000000004
    74   1      7.1750000000000114      44.485000000000014      45.920000000000009
    75   1        5.74000000000001      43.050000000000011      48.790000000000013
    76   1        5.74000000000001      44.485000000000014      50.225000000000009
    77   1      7.1750000000000114      43.050000000000011      50.225000000000009
    78   1      7.1750000000000114      44.485000000000014      48.790000000000013
    79   1        5.74000000000001      43.050000000000011      51.660000000000004
    80   1      7.1750000000000114      43.050000000000011      53.095000000000013
    81   1      7.1750000000000114      44.485000000000014      51.660000000000004
    82   1      7.1750000000000114      45.920000000000009      38.745000000000005
    83   1        5.74000000000001      45.920000000000009      40.180000000000014
    84   1        5.74000000000001      47.355000000000004      41.615000000000016
    85   1      7.1750000000000114      45.920000000000009      41.615000000000016
    86   1      7.1750000000000114      47.355000000000004      40.180000000000014
    87   1        5.74000000000001      45.920000000000009      43.050000000000011
    88   1        5.74000000000001      47.355000000000004      44.485000000000014
    89   1      7.1750000000000114      45.920000000000009      44.485000000000014
    90   1      7.1750000000000114      47.355000000000004      43.050000000000011
    91   1        5.74000000000001      45.920000000000009      45.920000000000009
    92   1        5.74000000000001      47.355000000000004      47.355000000000004
    93   1      7.1750000000000114      45.920000000000009      47.355000000000004
    94   1      7.1750000000000114      47.355000000000004      45.920000000000009
    95   1        5.74000000000001      45.920000000000009      48.790000000000013
    96   1        5.74000000000001      47.355000000000004      50.225000000000009
    97   1      7.1750000000000114      45.920000000000009      50.225000000000009
    98   1      7.1750000000000114      47.355000000000004      48.790000000000013
    99   1        5.74000000000001      45.920000000000009      51.660000000000004
   100   1      7.1750000000000114      45.920000000000009      53.095000000000013
   101   1      7.1750000000000114      47.355000000000004      51.660000000000004
   102   1      7.1750000000000114      48.790000000000013      38.745000000000005
   103   1        5.74000000000001      48.790000000000013      40.180000000000014
   104   1        5.74000000000001      50.225000000000009      41.615000000000016
   105   1      7.1750000000000114      48.790000000000013      41.615000000000016
   106   1      7.1750000000000114      50.225000000000009      40.180000000000014
   107   1        5.74000000000001      48.790000000000013      43.050000000000011
   108   1        5.74000000000001      50.225000000000009      44.485000000000014
   109   1      7.1750000000000114      48.790000000000013      44.485000000000014
   110   1      7.1750000000000114      50.225000000000009      43.050000000000011
   111   1        5.74000000000001      48.790000000000013      45.920000000000009
   112   1        5.74000000000001      50.225000000000009      47.355000000000004
   113   1      7.1750000000000114      48.790000000000013      47.355000000000004
   114   1      7.1750000000000114      50.225000000000009      45.920000000000009
   115   1        5.74000000000001      48.790000000000013      48.790000000000013
   116   1        5.74000000000001      50.225000000000009      50.225000000000009
   117   1      7.1750000000000114      48.790000000000013      50.225000000000009
   118   1      7.1750000000000114      50.225000000000009      48.790000000000013
   119   1        5.74000000000001      48.790000000000013      51.660000000000004
   120   1      7.1750000000000114      48.790000000000013      53.095000000000013
   121   1      7.1750000000000114      50.225000000000009      51.660000000000004
   122   1      7.1750000000000114      51.660000000000004      41.615000000000016
   123   1        5.74000000000001      51.660000000000004      43.050000000000011
   124   1      7.1750000000000114      51.660000000000004      44.485000000000014
   125   1      7.1750000000000114      53.095000000000013      43.050000000000011
   126   1        5.74000000000001      51.660000000000004      45.920000000000009
   127   1      7.1750000000000114      51.660000000000004      47.355000000000004
   128   1      7.1750000000000114      53.095000000000013      45.920000000000009
   129   1        5.74000000000001      51.660000000000004      48.790000000000013
   130   1      7.1750000000000114      51.660000000000004      50.225000000000009
   131   1      7.1750000000000114      53.095000000000013      48.790000000000013
   132   1      10.045000000000009      35.875000000000007      43.050000000000011
   133   1      10.045000000000009      35.875000000000007      45.920000000000009
   134   1      10.045000000000009      35.875000000000007      48.790000000000013
   135   1      8.6100000000000065      38.745000000000005      41.615000000000016
   136   1      10.045000000000009      37.310000000000002      41.615000000000016
   137   1      10.045000000000009      38.745000000000005      40.180000000000014
   138   1      8.6100000000000065      37.310000000000002      43.050000000000011
   139   1      8.6100000000000065      38.745000000000005      44.485000000000014
   140   1      10.045000000000009      37.310000000000002      44.485000000000014
   141   1      10.045000000000009      38.745000000000005      43.050000000000011
   142   1      8.6100000000000065      37.310000000000002      45.920000000000009
   143   1      8.6100000000000065      38.745000000000005      47.355000000000004
   144   1      10.045000000000009      37.310000000000002      47.355000000000004
   145   1      10.045000000000009      38.745000000000005      45.920000000000009
   146   1      8.6100000000000065      37.310000000000002      48.790000000000013
   147   1      8.6100000000000065      38.745000000000005      50.225000000000009
   148   1      10.045000000000009      37.310000000000002      50.225000000000009
   149   1      10.045000000000009      38.745000000000005      48.790000000000013
   150   1      10.045000000000009      38.745000000000005      51.660000000000004
   151   1      8.6100000000000065      41.615000000000016      38.745000000000005
   152   1      10.045000000000009      40.180000000000014      38.745000000000005
   153   1      10.045000000000009      41.615000000000016      37.310000000000002
   154   1      8.6100000000000065      40.180000000000014      40.180000000000014
   155   1      8.6100000000000065      41.615000000000016      41.615000000000016
   156   1      10.045000000000009      40.180000000000014      41.615000000000016
   157   1      10.045000000000009      41.615000000000016      40.180000000000014
   158   1      8.6100000000000065      40.180000000000014      43.050000000000011
   159   1      8.6100000000000065      41.615000000000016      44.485000000000014
   160   1      10.045000000000009      40.180000000000014      44.485000000000014
   161   1      10.045000000000009      41.615000000000016      43.050000000000011
   162   1      8.6100000000000065      40.180000000000014      45.920000000000009
   163   1      8.6100000000000065      41.615000000000016      47.355000000000004
   164   1      10.045000000000009      40.180000000000014      47.355000000000004
   165   1      10.045000000000009      41.615000000000016      45.920000000000009
   166   1      8.6100000000000065      40.180000000000014      48.790000000000013
   167   1      8.6100000000000065      41.615000000000016      50.225000000000009
   168   1      10.045000000000009      40.180000000000014      50.225000000000009
   169   1      10.045000000000009      41.615000000000016      48.790000000000013
   170   1      8.6100000000000065      40.180000000000014      51.660000000000004
   171   1      8.6100000000000065      41.615000000000016      53.095000000000013
   172   1      10.045000000000009      40.180000000000014      53.095000000000013
   173   1      10.045000000000009      41.615000000000016      51.660000000000004
   174   1      10.045000000000009      41.615000000000016      54.530000000000008
   175   1      10.045000000000009      43.050000000000011      35.875000000000007
   176   1      8.6100000000000065      43.050000000000011      37.310000000000002
   177   1      8.6100000000000065      44.485000000000014      38.745000000000005
   178   1      10.045000000000009      43.050000000000011      38.745000000000005
   179   1      10.045000000000009      44.485000000000014      37.310000000000002
   180   1      8.6100000000000065      43.050000000000011      40.180000000000014
   181   1      8.6100000000000065      44.485000000000014      41.615000000000016
   182   1      10.045000000000009      43.050000000000011      41.615000000000016
   183   1      10.045000000000009      44.485000000000014      40.180000000000014
   184   1      8.6100000000000065      43.050000000000011      43.050000000000011
   185   1      8.6100000000000065      44.485000000000014      44.485000000000014
   186   1      10.045000000000009      43.050000000000011      44.485000000000014
   187   1      10.045000000000009      44.485000000000014      43.050000000000011
   188   1      8.6100000000000065      43.050000000000011      45.920000000000009
   189   1      8.6100000000000065      44.485000000000014      47.355000000000004
   190   1      10.045000000000009      43.050000000000011      47.355000000000004
   191   1      10.045000000000009      44.485000000000014      45.920000000000009
   192   1      8.6100000000000065      43.050000000000011      48.790000000000013
   193   1      8.6100000000000065      44.485000000000014      50.225000000000009
   194   1      10.045000000000009      43.050000000000011      50.225000000000009
   195   1      10.045000000000009      44.485000000000014      48.790000000000013
   196   1      8.6100000000000065      43.050000000000011      51.660000000000004
   197   1      8.6100000000000065      44.485000000000014      53.095000000000013
   198   1      10.045000000000009      43.050000000000011      53.095000000000013
   199   1      10.045000000000009      44.485000000000014      51.660000000000004
   200   1      8.6100000000000065      43.050000000000011      54.530000000000008
   201   1      10.045000000000009      43.050000000000011      55.965000000000003
   202   1      10.045000000000009      44.485000000000014      54.530000000000008
   203   1      10.045000000000009      45.920000000000009      35.875000000000007
   204   1      8.6100000000000065      45.920000000000009      37.310000000000002
   205   1      8.6100000000000065      47.355000000000004      38.745000000000005
   206   1      10.045000000000009      45.920000000000009      38.745000000000005
   207   1      10.045000000000009      47.355000000000004      37.310000000000002
   208   1      8.6100000000000065      45.920000000000009      40.180000000000014
   209   1      8.6100000000000065      47.355000000000004      41.615000000000016
   210   1      10.045000000000009      45.920000000000009      41.615000000000016
   211   1      10.045000000000009      47.355000000000004      40.180000000000014
   212   1      8.6100000000000065      45.920000000000009      43.050000000000011
   213   1      8.6100000000000065      47.355000000000004      44.485000000000014
   214   1      10.045000000000009      45.920000000000009      44.485000000000014
   215   1      10.045000000000009      47.355000000000004      43.050000000000011
   216   1      8.6100000000000065      45.920000000000009      45.920000000000009
   217   1      8.6100000000000065      47.355000000000004      47.355000000000004
   218   1      10.045000000000009      45.920000000000009      47.355000000000004
   219   1      10.045000000000009      47.355000000000004      45.920000000000009
   220   1      8.6100000000000065      45.920000000000009      48.790000000000013
   221   1      8.6100000000000065      47.355000000000004      50.225000000000009
   222   1      10.045000000000009      45.920000000000009      50.225000000000009
   223   1      10.045000000000009      47.355000000000004      48.790000000000013
   224   1      8.6100000000000065      45.920000000000009      51.660000000000004
   225   1      8.6100000000000065      47.355000000000004      53.095000000000013
   226   1      10.045000000000009      45.920000000000009      53.095000000000013
   227   1      10.045000000000009      47.355000000000004      51.660000000000004
   228   1      8.6100000000000065      45.920000000000009      54.530000000000008
   229   1      10.045000000000009      45.920000000000009      55.965000000000003
   230   1      10.045000000000009      47.355000000000004      54.530000000000008
   231   1      10.045000000000009      48.790000000000013      35.875000000000007
   232   1      8.6100000000000065      48.790000000000013      37.310000000000002
   233   1      8.6100000000000065      50.225000000000009      38.745000000000005
   234   1      10.045000000000009      48.790000000000013      38.745000000000005
   235   1      10.045000000000009      50.225000000000009      37.310000000000002
   236   1      8.6100000000000065      48.790000000000013      40.180000000000014
   237   1      8.6100000000000065      50.225000000000009      41.615000000000016
   238   1      10.045000000000009      48.790000000000013      41.615000000000016
   239   1      10.045000000000009      50.225000000000009      40.180000000000014
   240   1      8.6100000000000065      48.790000000000013      43.050000000000011
   241   1      8.6100000000000065      50.225000000000009      44.485000000000014
   242   1      10.045000000000009      48.790000000000013      44.485000000000014
   243   1      10.045000000000009      50.225000000000009      43.050000000000011
   244   1      8.6100000000000065      48.790000000000013      45.920000000000009
   245   1      8.6100000000000065      50.225000000000009      47.355000000000004
   246   1      10.045000000000009      48.790000000000013      47.355000000000004
   247   1      10.045000000000009      50.225000000000009      45.920000000000009
   248   1      8.6100000000000065      48.790000000000013      48.790000000000013
   249   1      8.6100000000000065      50.225000000000009      50.225000000000009
   250   1      10.045000000000009      48.790000000000013      50.225000000000009
   251   1      10.045000000000009      50.225000000000009      48.790000000000013
   252   1      8.6100000000000065      48.790000000000013      51.660000000000004
   253   1      8.6100000000000065      50.225000000000009      53.095000000000013
   254   1      10.045000000000009      48.790000000000013      53.095000000000013
   255   1      10.045000000000009      50.225000000000009      51.660000000000004
   256   1      8.6100000000000065      48.790000000000013      54.530000000000008
   257   1      10.045000000000009      48.790000000000013      55.965000000000003
   258   1      10.045000000000009      50.225000000000009      54.530000000000008
   259   1      10.045000000000009      51.660000000000004      38.745000000000005
   260   1      8.6100000000000065      51.660000000000004      40.180000000000014
   261   1      8.6100000000000065      53.095000000000013      41.615000000000016
   262   1      10.045000000000009      51.660000000000004      41.615000000000016
   263   1      10.045000000000009      53.095000000000013      40.180000000000014
   264   1      8.6100000000000065      51.660000000000004      43.050000000000011
   265   1      8.6100000000000065      53.095000000000013      44.485000000000014
   266   1      10.045000000000009      51.660000000000004      44.485000000000014
   267   1      10.045000000000009      53.095000000000013      43.050000000000011
   268   1      8.6100000000000065      51.660000000000004      45.920000000000009
   269   1      8.6100000000000065      53.095000000000013      47.355000000000004
   270   1      10.045000000000009      51.660000000000004      47.355000000000004
   271   1      10.045000000000009      53.095000000000013      45.920000000000009
   272   1      8.6100000000000065      51.660000000000004      48.790000000000013
   273   1      8.6100000000000065      53.095000000000013      50.225000000000009
   274   1      10.045000000000009      51.660000000000004      50.225000000000009
   275   1      10.045000000000009      53.095000000000013      48.790000000000013
   276   1      8.6100000000000065      51.660000000000004      51.660000000000004
   277   1      10.045000000000009      51.660000000000004      53.095000000000013
   278   1      10.045000000000009      53.095000000000013      51.660000000000004
   279   1      10.045000000000009      54.530000000000008      41.615000000000016
   280   1      8.6100000000000065      54.530000000000008      43.050000000000011
   281   1      10.045000000000009      54.530000000000008      44.485000000000014
   282   1      10.045000000000009      55.965000000000003      43.050000000000011
   283   1      8.6100000000000065      54.530000000000008      45.920000000000009
   284   1      10.045000000000009      54.530000000000008      47.355000000000004
   285   1      10.045000000000009      55.965000000000003      45.920000000000009
   286   1      8.6100000000000065      54.530000000000008      48.790000000000013
   287   1      10.045000000000009      54.530000000000008      50.225000000000009
   288   1      10.045000000000009      55.965000000000003      48.790000000000013
   289   1      12.915000000000006       33.00500000000001      43.050000000000011
   290   1      12.915000000000006       33.00500000000001      45.920000000000009
   291   1      12.915000000000006       33.00500000000001      48.790000000000013
   292   1      12.915000000000006      35.875000000000007      37.310000000000002
   293   1      11.480000000000006      35.875000000000007      41.615000000000016
   294   1      12.915000000000006      34.440000000000012      41.615000000000016
   295   1      12.915000000000006      35.875000000000007      40.180000000000014
   296   1      11.480000000000006      34.440000000000012      43.050000000000011
   297   1      11.480000000000006      35.875000000000007      44.485000000000014
   298   1      12.915000000000006      34.440000000000012      44.485000000000014
   299   1      12.915000000000006      35.875000000000007      43.050000000000011
   300   1      11.480000000000006      34.440000000000012      45.920000000000009
   301   1      11.480000000000006      35.875000000000007      47.355000000000004
   302   1      12.915000000000006      34.440000000000012      47.355000000000004
   303   1      12.915000000000006      35.875000000000007      45.920000000000009
   304   1      11.480000000000006      34.440000000000012      48.790000000000013
   305   1      11.480000000000006      35.875000000000007      50.225000000000009
   306   1      12.915000000000006      34.440000000000012      50.225000000000009
   307   1      12.915000000000006      35.875000000000007      48.790000000000013
   308   1      12.915000000000006      35.875000000000007      51.660000000000004
   309   1      12.915000000000006      35.875000000000007      54.530000000000008
   310   1      12.915000000000006      37.310000000000002      35.875000000000007
   311   1      11.480000000000006      37.310000000000002      37.310000000000002
   312   1      11.480000000000006      38.745000000000005      38.745000000000005
   313   1      12.915000000000006      37.310000000000002      38.745000000000005
   314   1      12.915000000000006      38.745000000000005      37.310000000000002
   315   1      11.480000000000006      37.310000000000002      40.180000000000014
   316   1      11.480000000000006      38.745000000000005      41.615000000000016
   317   1      12.915000000000006      37.310000000000002      41.615000000000016
   318   1      12.915000000000006      38.745000000000005      40.180000000000014
   319   1      11.480000000000006      37.310000000000002      43.050000000000011
   320   1      11.480000000000006      38.745000000000005      44.485000000000014
   321   1      12.915000000000006      37.310000000000002      44.485000000000014
   322   1      12.915000000000006      38.745000000000005      43.050000000000011
   323   1      11.480000000000006      37.310000000000002      45.920000000000009
   324   1      11.480000000000006      38.745000000000005      47.355000000000004
   325   1      12.915000000000006      37.310000000000002      47.355000000000004
   326   1      12.915000000000006      38.745000000000005      45.920000000000009
   327   1      11.480000000000006      37.310000000000002      48.790000000000013
   328   1      11.480000000000006      38.745000000000005      50.225000000000009
   329   1      12.915000000000006      37.310000000000002      50.225000000000009
   330   1      12.915000000000006      38.745000000000005      48.790000000000013
   331   1      11.480000000000006      37.310000000000002      51.660000000000004
   332   1      11.480000000000006      38.745000000000005      53.095000000000013
   333   1      12.915000000000006      37.310000000000002      53.095000000000013
   334   1      12.915000000000006      38.745000000000005      51.660000000000004
   335   1      11.480000000000006      37.310000000000002      54.530000000000008
   336   1      12.915000000000006      37.310000000000002      55.965000000000003
   337   1      12.915000000000006      38.745000000000005      54.530000000000008
   338   1      11.480000000000006      41.615000000000016      35.875000000000007
   339   1      12.915000000000006      40.180000000000014      35.875000000000007
   340   1      12.915000000000006      41.615000000000016      34.440000000000012
   341   1      11.480000000000006      40.180000000000014      37.310000000000002
   342   1      11.480000000000006      41.615000000000016      38.745000000000005
   343   1      12.915000000000006      40.180000000000014      38.745000000000005
   344   1      12.915000000000006      41.615000000000016      37.310000000000002
   345   1      11.480000000000006      40.180000000000014      40.180000000000014
   346   1      11.480000000000006      41.615000000000016      41.615000000000016
   347   1      12.915000000000006      40.180000000000014      41.615000000000016
   348   1      12.915000000000006      41.615000000000016      40.180000000000014
   349   1      11.480000000000006      40.180000000000014      43.050000000000011
   350   1      11.480000000000006      41.615000000000016      44.485000000000014
   351   1      12.915000000000006      40.180000000000014      44.485000000000014
   352   1      12.915000000000006      41.615000000000016      43.050000000000011
   353   1      11.480000000000006      40.180000000000014      45.920000000000009
   354   1      11.480000000000006      41.615000000000016      47.355000000000004
   355   1      12.915000000000006      40.180000000000014      47.355000000000004
   356   1      12.915000000000006      41.615000000000016      45.920000000000009
   357   1      11.480000000000006      40.180000000000014      48.790000000000013
   358   1      11.480000000000006      41.615000000000016      50.225000000000009