model_files/CuFeNi/CuFeNi_30000/CuFeNi_540/CuFeNi_540_fcc_29765_temp.data (written by ASE) 

29765 	 atoms 
3  atom types
0.0                     100  xlo xhi
0.0                     100  ylo yhi
0.0                     100  zlo zhi


Atoms 

     1   1                       0      48.330000000000005      48.330000000000005
     2   1      1.7899999999999991      46.540000000000006      48.330000000000005
     3   1      1.7899999999999991      48.330000000000005      46.540000000000006
     4   1                       0      48.330000000000005      51.910000000000004
     5   1      1.7899999999999991      46.540000000000006      51.910000000000004
     6   1      1.7899999999999991      48.330000000000005      50.120000000000012
     7   1      1.7899999999999991      48.330000000000005      53.700000000000003
     8   1                       0      51.910000000000004      48.330000000000005
     9   1      1.7899999999999991      50.120000000000012      48.330000000000005
    10   1      1.7899999999999991      51.910000000000004      46.540000000000006
    11   1                       0      50.120000000000012      50.120000000000012
    12   1                       0      51.910000000000004      51.910000000000004
    13   1      1.7899999999999991      50.120000000000012      51.910000000000004
    14   1      1.7899999999999991      51.910000000000004      50.120000000000012
    15   1      1.7899999999999991      51.910000000000004      53.700000000000003
    16   1      1.7899999999999991      53.700000000000003      48.330000000000005
    17   1      1.7899999999999991      53.700000000000003      51.910000000000004
    18   1      3.5799999999999983                   44.75                   44.75
    19   1      5.3700000000000045      42.960000000000001                   44.75
    20   1      5.3700000000000045                   44.75      42.960000000000001
    21   1      3.5799999999999983                   44.75      48.330000000000005
    22   1      5.3700000000000045      42.960000000000001      48.330000000000005
    23   1      5.3700000000000045                   44.75      46.540000000000006
    24   1      3.5799999999999983                   44.75      51.910000000000004
    25   1      5.3700000000000045      42.960000000000001      51.910000000000004
    26   1      5.3700000000000045                   44.75      50.120000000000012
    27   1      3.5799999999999983                   44.75      55.490000000000009
    28   1      5.3700000000000045      42.960000000000001      55.490000000000009
    29   1      5.3700000000000045                   44.75      53.700000000000003
    30   1      5.3700000000000045                   44.75      57.280000000000001
    31   1      3.5799999999999983      48.330000000000005                   44.75
    32   1      5.3700000000000045      46.540000000000006                   44.75
    33   1      5.3700000000000045      48.330000000000005      42.960000000000001
    34   1      3.5799999999999983      46.540000000000006      46.540000000000006
    35   1      3.5799999999999983      48.330000000000005      48.330000000000005
    36   1      5.3700000000000045      46.540000000000006      48.330000000000005
    37   1      5.3700000000000045      48.330000000000005      46.540000000000006
    38   1      3.5799999999999983      46.540000000000006      50.120000000000012
    39   1      3.5799999999999983      48.330000000000005      51.910000000000004
    40   1      5.3700000000000045      46.540000000000006      51.910000000000004
    41   1      5.3700000000000045      48.330000000000005      50.120000000000012
    42   1      3.5799999999999983      46.540000000000006      53.700000000000003
    43   1      3.5799999999999983      48.330000000000005      55.490000000000009
    44   1      5.3700000000000045      46.540000000000006      55.490000000000009
    45   1      5.3700000000000045      48.330000000000005      53.700000000000003
    46   1      5.3700000000000045      48.330000000000005      57.280000000000001
    47   1      3.5799999999999983      51.910000000000004                   44.75
    48   1      5.3700000000000045      50.120000000000012                   44.75
    49   1      5.3700000000000045      51.910000000000004      42.960000000000001
    50   1      3.5799999999999983      50.120000000000012      46.540000000000006
    51   1      3.5799999999999983      51.910000000000004      48.330000000000005
    52   1      5.3700000000000045      50.120000000000012      48.330000000000005
    53   1      5.3700000000000045      51.910000000000004      46.540000000000006
    54   1      3.5799999999999983      50.120000000000012      50.120000000000012
    55   1      3.5799999999999983      51.910000000000004      51.910000000000004
    56   1      5.3700000000000045      50.120000000000012      51.910000000000004
    57   1      5.3700000000000045      51.910000000000004      50.120000000000012
    58   1      3.5799999999999983      50.120000000000012      53.700000000000003
    59   1      3.5799999999999983      51.910000000000004      55.490000000000009
    60   1      5.3700000000000045      50.120000000000012      55.490000000000009
    61   1      5.3700000000000045      51.910000000000004      53.700000000000003
    62   1      5.3700000000000045      51.910000000000004      57.280000000000001
    63   1      3.5799999999999983      55.490000000000009                   44.75
    64   1      5.3700000000000045      53.700000000000003                   44.75
    65   1      5.3700000000000045      55.490000000000009      42.960000000000001
    66   1      3.5799999999999983      53.700000000000003      46.540000000000006
    67   1      3.5799999999999983      55.490000000000009      48.330000000000005
    68   1      5.3700000000000045      53.700000000000003      48.330000000000005
    69   1      5.3700000000000045      55.490000000000009      46.540000000000006
    70   1      3.5799999999999983      53.700000000000003      50.120000000000012
    71   1      3.5799999999999983      55.490000000000009      51.910000000000004
    72   1      5.3700000000000045      53.700000000000003      51.910000000000004
    73   1      5.3700000000000045      55.490000000000009      50.120000000000012
    74   1      3.5799999999999983      53.700000000000003      53.700000000000003
    75   1      3.5799999999999983      55.490000000000009      55.490000000000009
    76   1      5.3700000000000045      53.700000000000003      55.490000000000009
    77   1      5.3700000000000045      55.490000000000009      53.700000000000003
    78   1      5.3700000000000045      55.490000000000009      57.280000000000001
    79   1      5.3700000000000045      57.280000000000001                   44.75
    80   1      5.3700000000000045      57.280000000000001      48.330000000000005
    81   1      5.3700000000000045      57.280000000000001      51.910000000000004
    82   1      5.3700000000000045      57.280000000000001      55.490000000000009
    83   1      8.9500000000000028      37.590000000000003      39.380000000000003
    84   1      8.9500000000000028      37.590000000000003      42.960000000000001
    85   1      8.9500000000000028      37.590000000000003      46.540000000000006
    86   1      8.9500000000000028      37.590000000000003      50.120000000000012
    87   1      8.9500000000000028      37.590000000000003      53.700000000000003
    88   1      8.9500000000000028      37.590000000000003      57.280000000000001
    89   1      8.9500000000000028      37.590000000000003      60.859999999999999
    90   1      8.9500000000000028      39.380000000000003      37.590000000000003
    91   1      7.1600000000000037      39.380000000000003      39.380000000000003
    92   1      7.1600000000000037      41.170000000000002      41.170000000000002
    93   1      8.9500000000000028      39.380000000000003      41.170000000000002
    94   1      8.9500000000000028      41.170000000000002      39.380000000000003
    95   1      7.1600000000000037      39.380000000000003      42.960000000000001
    96   1      7.1600000000000037      41.170000000000002                   44.75
    97   1      8.9500000000000028      39.380000000000003                   44.75
    98   1      8.9500000000000028      41.170000000000002      42.960000000000001
    99   1      7.1600000000000037      39.380000000000003      46.540000000000006
   100   1      7.1600000000000037      41.170000000000002      48.330000000000005
   101   1      8.9500000000000028      39.380000000000003      48.330000000000005
   102   1      8.9500000000000028      41.170000000000002      46.540000000000006
   103   1      7.1600000000000037      39.380000000000003      50.120000000000012
   104   1      7.1600000000000037      41.170000000000002      51.910000000000004
   105   1      8.9500000000000028      39.380000000000003      51.910000000000004
   106   1      8.9500000000000028      41.170000000000002      50.120000000000012
   107   1      7.1600000000000037      39.380000000000003      53.700000000000003
   108   1      7.1600000000000037      41.170000000000002      55.490000000000009
   109   1      8.9500000000000028      39.380000000000003      55.490000000000009
   110   1      8.9500000000000028      41.170000000000002      53.700000000000003
   111   1      7.1600000000000037      39.380000000000003      57.280000000000001
   112   1      7.1600000000000037      41.170000000000002                   59.07
   113   1      8.9500000000000028      39.380000000000003                   59.07
   114   1      8.9500000000000028      41.170000000000002      57.280000000000001
   115   1      7.1600000000000037      39.380000000000003      60.859999999999999
   116   1      8.9500000000000028      39.380000000000003      62.650000000000006
   117   1      8.9500000000000028      41.170000000000002      60.859999999999999
   118   1      8.9500000000000028      42.960000000000001      37.590000000000003
   119   1      7.1600000000000037      42.960000000000001      39.380000000000003
   120   1      7.1600000000000037                   44.75      41.170000000000002
   121   1      8.9500000000000028      42.960000000000001      41.170000000000002
   122   1      8.9500000000000028                   44.75      39.380000000000003
   123   1      7.1600000000000037      42.960000000000001      42.960000000000001
   124   1      7.1600000000000037                   44.75                   44.75
   125   1      8.9500000000000028      42.960000000000001                   44.75
   126   1      8.9500000000000028                   44.75      42.960000000000001
   127   1      7.1600000000000037      42.960000000000001      46.540000000000006
   128   1      7.1600000000000037                   44.75      48.330000000000005
   129   1      8.9500000000000028      42.960000000000001      48.330000000000005
   130   1      8.9500000000000028                   44.75      46.540000000000006
   131   1      7.1600000000000037      42.960000000000001      50.120000000000012
   132   1      7.1600000000000037                   44.75      51.910000000000004
   133   1      8.9500000000000028      42.960000000000001      51.910000000000004
   134   1      8.9500000000000028                   44.75      50.120000000000012
   135   1      7.1600000000000037      42.960000000000001      53.700000000000003
   136   1      7.1600000000000037                   44.75      55.490000000000009
   137   1      8.9500000000000028      42.960000000000001      55.490000000000009
   138   1      8.9500000000000028                   44.75      53.700000000000003
   139   1      7.1600000000000037      42.960000000000001      57.280000000000001
   140   1      7.1600000000000037                   44.75                   59.07
   141   1      8.9500000000000028      42.960000000000001                   59.07
   142   1      8.9500000000000028                   44.75      57.280000000000001
   143   1      7.1600000000000037      42.960000000000001      60.859999999999999
   144   1      8.9500000000000028      42.960000000000001      62.650000000000006
   145   1      8.9500000000000028                   44.75      60.859999999999999
   146   1      8.9500000000000028      46.540000000000006      37.590000000000003
   147   1      7.1600000000000037      46.540000000000006      39.380000000000003
   148   1      7.1600000000000037      48.330000000000005      41.170000000000002
   149   1      8.9500000000000028      46.540000000000006      41.170000000000002
   150   1      8.9500000000000028      48.330000000000005      39.380000000000003
   151   1      7.1600000000000037      46.540000000000006      42.960000000000001
   152   1      7.1600000000000037      48.330000000000005                   44.75
   153   1      8.9500000000000028      46.540000000000006                   44.75
   154   1      8.9500000000000028      48.330000000000005      42.960000000000001
   155   1      7.1600000000000037      46.540000000000006      46.540000000000006
   156   1      7.1600000000000037      48.330000000000005      48.330000000000005
   157   1      8.9500000000000028      46.540000000000006      48.330000000000005
   158   1      8.9500000000000028      48.330000000000005      46.540000000000006
   159   1      7.1600000000000037      46.540000000000006      50.120000000000012
   160   1      7.1600000000000037      48.330000000000005      51.910000000000004
   161   1      8.9500000000000028      46.540000000000006      51.910000000000004
   162   1      8.9500000000000028      48.330000000000005      50.120000000000012
   163   1      7.1600000000000037      46.540000000000006      53.700000000000003
   164   1      7.1600000000000037      48.330000000000005      55.490000000000009
   165   1      8.9500000000000028      46.540000000000006      55.490000000000009
   166   1      8.9500000000000028      48.330000000000005      53.700000000000003
   167   1      7.1600000000000037      46.540000000000006      57.280000000000001
   168   1      7.1600000000000037      48.330000000000005                   59.07
   169   1      8.9500000000000028      46.540000000000006                   59.07
   170   1      8.9500000000000028      48.330000000000005      57.280000000000001
   171   1      7.1600000000000037      46.540000000000006      60.859999999999999
   172   1      8.9500000000000028      46.540000000000006      62.650000000000006
   173   1      8.9500000000000028      48.330000000000005      60.859999999999999
   174   1      8.9500000000000028      50.120000000000012      37.590000000000003
   175   1      7.1600000000000037      50.120000000000012      39.380000000000003
   176   1      7.1600000000000037      51.910000000000004      41.170000000000002
   177   1      8.9500000000000028      50.120000000000012      41.170000000000002
   178   1      8.9500000000000028      51.910000000000004      39.380000000000003
   179   1      7.1600000000000037      50.120000000000012      42.960000000000001
   180   1      7.1600000000000037      51.910000000000004                   44.75
   181   1      8.9500000000000028      50.120000000000012                   44.75
   182   1      8.9500000000000028      51.910000000000004      42.960000000000001
   183   1      7.1600000000000037      50.120000000000012      46.540000000000006
   184   1      7.1600000000000037      51.910000000000004      48.330000000000005
   185   1      8.9500000000000028      50.120000000000012      48.330000000000005
   186   1      8.9500000000000028      51.910000000000004      46.540000000000006
   187   1      7.1600000000000037      50.120000000000012      50.120000000000012
   188   1      7.1600000000000037      51.910000000000004      51.910000000000004
   189   1      8.9500000000000028      50.120000000000012      51.910000000000004
   190   1      8.9500000000000028      51.910000000000004      50.120000000000012
   191   1      7.1600000000000037      50.120000000000012      53.700000000000003
   192   1      7.1600000000000037      51.910000000000004      55.490000000000009
   193   1      8.9500000000000028      50.120000000000012      55.490000000000009
   194   1      8.9500000000000028      51.910000000000004      53.700000000000003
   195   1      7.1600000000000037      50.120000000000012      57.280000000000001
   196   1      7.1600000000000037      51.910000000000004                   59.07
   197   1      8.9500000000000028      50.120000000000012                   59.07
   198   1      8.9500000000000028      51.910000000000004      57.280000000000001
   199   1      7.1600000000000037      50.120000000000012      60.859999999999999
   200   1      8.9500000000000028      50.120000000000012      62.650000000000006
   201   1      8.9500000000000028      51.910000000000004      60.859999999999999
   202   1      8.9500000000000028      53.700000000000003      37.590000000000003
   203   1      7.1600000000000037      53.700000000000003      39.380000000000003
   204   1      7.1600000000000037      55.490000000000009      41.170000000000002
   205   1      8.9500000000000028      53.700000000000003      41.170000000000002
   206   1      8.9500000000000028      55.490000000000009      39.380000000000003
   207   1      7.1600000000000037      53.700000000000003      42.960000000000001
   208   1      7.1600000000000037      55.490000000000009                   44.75
   209   1      8.9500000000000028      53.700000000000003                   44.75
   210   1      8.9500000000000028      55.490000000000009      42.960000000000001
   211   1      7.1600000000000037      53.700000000000003      46.540000000000006
   212   1      7.1600000000000037      55.490000000000009      48.330000000000005
   213   1      8.9500000000000028      53.700000000000003      48.330000000000005
   214   1      8.9500000000000028      55.490000000000009      46.540000000000006
   215   1      7.1600000000000037      53.700000000000003      50.120000000000012
   216   1      7.1600000000000037      55.490000000000009      51.910000000000004
   217   1      8.9500000000000028      53.700000000000003      51.910000000000004
   218   1      8.9500000000000028      55.490000000000009      50.120000000000012
   219   1      7.1600000000000037      53.700000000000003      53.700000000000003
   220   1      7.1600000000000037      55.490000000000009      55.490000000000009
   221   1      8.9500000000000028      53.700000000000003      55.490000000000009
   222   1      8.9500000000000028      55.490000000000009      53.700000000000003
   223   1      7.1600000000000037      53.700000000000003      57.280000000000001
   224   1      7.1600000000000037      55.490000000000009                   59.07
   225   1      8.9500000000000028      53.700000000000003                   59.07
   226   1      8.9500000000000028      55.490000000000009      57.280000000000001
   227   1      7.1600000000000037      53.700000000000003      60.859999999999999
   228   1      8.9500000000000028      53.700000000000003      62.650000000000006
   229   1      8.9500000000000028      55.490000000000009      60.859999999999999
   230   1      8.9500000000000028      57.280000000000001      37.590000000000003
   231   1      7.1600000000000037      57.280000000000001      39.380000000000003
   232   1      7.1600000000000037                   59.07      41.170000000000002
   233   1      8.9500000000000028      57.280000000000001      41.170000000000002
   234   1      8.9500000000000028                   59.07      39.380000000000003
   235   1      7.1600000000000037      57.280000000000001      42.960000000000001
   236   1      7.1600000000000037                   59.07                   44.75
   237   1      8.9500000000000028      57.280000000000001                   44.75
   238   1      8.9500000000000028                   59.07      42.960000000000001
   239   1      7.1600000000000037      57.280000000000001      46.540000000000006
   240   1      7.1600000000000037                   59.07      48.330000000000005
   241   1      8.9500000000000028      57.280000000000001      48.330000000000005
   242   1      8.9500000000000028                   59.07      46.540000000000006
   243   1      7.1600000000000037      57.280000000000001      50.120000000000012
   244   1      7.1600000000000037                   59.07      51.910000000000004
   245   1      8.9500000000000028      57.280000000000001      51.910000000000004
   246   1      8.9500000000000028                   59.07      50.120000000000012
   247   1      7.1600000000000037      57.280000000000001      53.700000000000003
   248   1      7.1600000000000037                   59.07      55.490000000000009
   249   1      8.9500000000000028      57.280000000000001      55.490000000000009
   250   1      8.9500000000000028                   59.07      53.700000000000003
   251   1      7.1600000000000037      57.280000000000001      57.280000000000001
   252   1      7.1600000000000037                   59.07                   59.07
   253   1      8.9500000000000028      57.280000000000001                   59.07
   254   1      8.9500000000000028                   59.07      57.280000000000001
   255   1      7.1600000000000037      57.280000000000001      60.859999999999999
   256   1      8.9500000000000028      57.280000000000001      62.650000000000006
   257   1      8.9500000000000028                   59.07      60.859999999999999
   258   1      8.9500000000000028      60.859999999999999      37.590000000000003
   259   1      7.1600000000000037      60.859999999999999      39.380000000000003
   260   1      8.9500000000000028      60.859999999999999      41.170000000000002
   261   1      8.9500000000000028      62.650000000000006      39.380000000000003
   262   1      7.1600000000000037      60.859999999999999      42.960000000000001
   263   1      8.9500000000000028      60.859999999999999                   44.75
   264   1      8.9500000000000028      62.650000000000006      42.960000000000001
   265   1      7.1600000000000037      60.859999999999999      46.540000000000006
   266   1      8.9500000000000028      60.859999999999999      48.330000000000005
   267   1      8.9500000000000028      62.650000000000006      46.540000000000006
   268   1      7.1600000000000037      60.859999999999999      50.120000000000012
   269   1      8.9500000000000028      60.859999999999999      51.910000000000004
   270   1      8.9500000000000028      62.650000000000006      50.120000000000012
   271   1      7.1600000000000037      60.859999999999999      53.700000000000003
   272   1      8.9500000000000028      60.859999999999999      55.490000000000009
   273   1      8.9500000000000028      62.650000000000006      53.700000000000003
   274   1      7.1600000000000037      60.859999999999999      57.280000000000001
   275   1      8.9500000000000028      60.859999999999999                   59.07
   276   1      8.9500000000000028      62.650000000000006      57.280000000000001
   277   1      7.1600000000000037      60.859999999999999      60.859999999999999
   278   1      8.9500000000000028      60.859999999999999      62.650000000000006
   279   1      8.9500000000000028      62.650000000000006      60.859999999999999
   280   1      12.530000000000003      34.009999999999998      35.800000000000004
   281   1      12.530000000000003      34.009999999999998      39.380000000000003
   282   1      12.530000000000003      34.009999999999998      42.960000000000001
   283   1      12.530000000000003      34.009999999999998      46.540000000000006
   284   1      12.530000000000003      34.009999999999998      50.120000000000012
   285   1      12.530000000000003      34.009999999999998      53.700000000000003
   286   1      12.530000000000003      34.009999999999998      57.280000000000001
   287   1      12.530000000000003      34.009999999999998      60.859999999999999
   288   1      12.530000000000003      34.009999999999998      64.439999999999998
   289   1      12.530000000000003      35.800000000000004      34.009999999999998
   290   1      10.740000000000002      35.800000000000004      35.800000000000004
   291   1      10.740000000000002      37.590000000000003      37.590000000000003
   292   1      12.530000000000003      35.800000000000004      37.590000000000003
   293   1      12.530000000000003      37.590000000000003      35.800000000000004
   294   1      10.740000000000002      35.800000000000004      39.380000000000003
   295   1      10.740000000000002      37.590000000000003      41.170000000000002
   296   1      12.530000000000003      35.800000000000004      41.170000000000002
   297   1      12.530000000000003      37.590000000000003      39.380000000000003
   298   1      10.740000000000002      35.800000000000004      42.960000000000001
   299   1      10.740000000000002      37.590000000000003                   44.75
   300   1      12.530000000000003      35.800000000000004                   44.75
   301   1      12.530000000000003      37.590000000000003      42.960000000000001
   302   1      10.740000000000002      35.800000000000004      46.540000000000006
   303   1      10.740000000000002      37.590000000000003      48.330000000000005
   304   1      12.530000000000003      35.800000000000004      48.330000000000005
   305   1      12.530000000000003      37.590000000000003      46.540000000000006
   306   1      10.740000000000002      35.800000000000004      50.120000000000012
   307   1      10.740000000000002      37.590000000000003      51.910000000000004
   308   1      12.530000000000003      35.800000000000004      51.910000000000004
   309   1      12.530000000000003      37.590000000000003      50.120000000000012
   310   1      10.740000000000002      35.800000000000004      53.700000000000003
   311   1      10.740000000000002      37.590000000000003      55.490000000000009
   312   1      12.530000000000003      35.800000000000004      55.490000000000009
   313   1      12.530000000000003      37.590000000000003      53.700000000000003
   314   1      10.740000000000002      35.800000000000004      57.280000000000001
   315   1      10.740000000000002      37.590000000000003                   59.07
   316   1      12.530000000000003      35.800000000000004                   59.07
   317   1      12.530000000000003      37.590000000000003      57.280000000000001
   318   1      10.740000000000002      35.800000000000004      60.859999999999999
   319   1      10.740000000000002      37.590000000000003      62.650000000000006
   320   1      12.530000000000003      35.800000000000004      62.650000000000006
   321   1      12.530000000000003      37.590000000000003      60.859999999999999
   322   1      10.740000000000002      35.800000000000004      64.439999999999998
   323   1      12.530000000000003      35.800000000000004      66.230000000000004
   324   1      12.530000000000003      37.590000000000003      64.439999999999998
   325   1      12.530000000000003      39.380000000000003      34.009999999999998
   326   1      10.740000000000002      39.380000000000003      35.800000000000004
   327   1      10.740000000000002      41.170000000000002      37.590000000000003
   328   1      12.530000000000003      39.380000000000003      37.590000000000003
   329   1      12.530000000000003      41.170000000000002      35.800000000000004
   330   1      10.740000000000002      39.380000000000003      39.380000000000003
   331   1      10.740000000000002      41.170000000000002      41.170000000000002
   332   1      12.530000000000003      39.380000000000003      41.170000000000002
   333   1      12.530000000000003      41.170000000000002      39.380000000000003
   334   1      10.740000000000002      39.380000000000003      42.960000000000001
   335   1      10.740000000000002      41.170000000000002                   44.75
   336   1      12.530000000000003      39.380000000000003                   44.75
   337   1      12.530000000000003      41.170000000000002      42.960000000000001
   338   1      10.740000000000002      39.380000000000003      46.540000000000006
   339   1      10.740000000000002      41.170000000000002      48.330000000000005
   340   1      12.530000000000003      39.380000000000003      48.330000000000005
   341   1      12.530000000000003      41.170000000000002      46.540000000000006
   342   1      10.740000000000002      39.380000000000003      50.120000000000012
   343   1      10.740000000000002      41.170000000000002      51.910000000000004
   344   1      12.530000000000003      39.380000000000003      51.910000000000004
   345   1      12.530000000000003      41.170000000000002      50.120000000000012
   346   1      10.740000000000002      39.380000000000003      53.700000000000003
   347   1      10.740000000000002      41.170000000000002      55.490000000000009
   348   1      12.530000000000003      39.380000000000003      55.490000000000009
   349   1      12.530000000000003      41.170000000000002      53.700000000000003
   350   1      10.740000000000002      39.380000000000003      57.280000000000001
   351   1      10.740000000000002      41.170000000000002                   59.07
   352   1      12.530000000000003      39.380000000000003                   59.07
   353   1      12.530000000000003      41.170000000000002      57.280000000000001
   354   1      10.740000000000002      39.380000000000003      60.859999999999999
   355   1      10.740000000000002      41.170000000000002      62.650000000000006
   356   1      12.530000000000003      39.380000000000003      62.650000000000006
   357   1      12.530000000000003      41.170000000000002      60.859999999999999
   358   1      10.740000000000002      39.380000000000003      64.439999999999998