LAMMPS data file via write_data, version 30 Nov 2020, timestep = 0

30069 atoms
5 atom types

0 103 xlo xhi
0 103 ylo yhi
0 103 zlo zhi

Masses

1 58.7
2 55.8
3 52
4 59
5 26

Atoms # atomic

1 4 1.8049999999999995 48.73499999999999 50.54 0 0 0
2 5 1.8049999999999995 50.54 48.73499999999999 0 0 0
3 2 0 50.54 50.54 0 0 0
6 2 5.414999999999999 41.515 50.54 0 0 0
7 2 3.609999999999999 45.125 48.73499999999999 0 0 0
8 1 5.414999999999999 43.31999999999999 48.73499999999999 0 0 0
9 3 5.414999999999999 45.125 46.92999999999999 0 0 0
10 1 3.609999999999999 43.31999999999999 50.54 0 0 0
13 2 5.414999999999999 45.125 50.54 0 0 0
15 5 3.609999999999999 48.73499999999999 45.125 0 0 0
16 2 5.414999999999999 46.92999999999999 45.125 0 0 0
17 4 5.414999999999999 48.73499999999999 43.31999999999999 0 0 0
18 4 3.609999999999999 46.92999999999999 46.92999999999999 0 0 0
19 2 3.609999999999999 48.73499999999999 48.73499999999999 0 0 0
20 2 5.414999999999999 46.92999999999999 48.73499999999999 0 0 0
21 5 5.414999999999999 48.73499999999999 46.92999999999999 0 0 0
22 1 3.609999999999999 46.92999999999999 50.54 0 0 0
25 1 5.414999999999999 48.73499999999999 50.54 0 0 0
31 3 5.414999999999999 50.54 41.515 0 0 0
32 5 3.609999999999999 50.54 43.31999999999999 0 0 0
34 3 5.414999999999999 50.54 45.125 0 0 0
36 4 3.609999999999999 50.54 46.92999999999999 0 0 0
38 4 5.414999999999999 50.54 48.73499999999999 0 0 0
40 2 3.609999999999999 50.54 50.54 0 0 0
67 1 9.024999999999997 34.295 50.54 0 0 0
68 5 7.219999999999998 37.904999999999994 48.73499999999999 0 0 0
69 5 9.024999999999997 36.1 48.73499999999999 0 0 0
70 1 9.024999999999997 37.904999999999994 46.92999999999999 0 0 0
71 4 7.219999999999998 36.1 50.54 0 0 0
74 4 9.024999999999997 37.904999999999994 50.54 0 0 0
76 1 7.219999999999998 41.515 45.125 0 0 0
77 4 9.024999999999997 39.71 45.125 0 0 0
78 5 9.024999999999997 41.515 43.31999999999999 0 0 0
79 1 7.219999999999998 39.71 46.92999999999999 0 0 0
80 3 7.219999999999998 41.515 48.73499999999999 0 0 0
81 4 9.024999999999997 39.71 48.73499999999999 0 0 0
82 5 9.024999999999997 41.515 46.92999999999999 0 0 0
83 4 7.219999999999998 39.71 50.54 0 0 0
86 5 9.024999999999997 41.515 50.54 0 0 0
92 2 7.219999999999998 45.125 41.515 0 0 0
93 4 9.024999999999997 43.31999999999999 41.515 0 0 0
94 2 9.024999999999997 45.125 39.71 0 0 0
95 3 7.219999999999998 43.31999999999999 43.31999999999999 0 0 0
96 5 7.219999999999998 45.125 45.125 0 0 0
97 2 9.024999999999997 43.31999999999999 45.125 0 0 0
98 5 9.024999999999997 45.125 43.31999999999999 0 0 0
99 4 7.219999999999998 43.31999999999999 46.92999999999999 0 0 0
100 4 7.219999999999998 45.125 48.73499999999999 0 0 0
101 4 9.024999999999997 43.31999999999999 48.73499999999999 0 0 0
102 3 9.024999999999997 45.125 46.92999999999999 0 0 0
103 5 7.219999999999998 43.31999999999999 50.54 0 0 0
106 3 9.024999999999997 45.125 50.54 0 0 0
116 3 7.219999999999998 48.73499999999999 37.904999999999994 0 0 0
117 2 9.024999999999997 46.92999999999999 37.904999999999994 0 0 0
118 3 9.024999999999997 48.73499999999999 36.1 0 0 0
119 1 7.219999999999998 46.92999999999999 39.71 0 0 0
120 5 7.219999999999998 48.73499999999999 41.515 0 0 0
121 5 9.024999999999997 46.92999999999999 41.515 0 0 0
122 4 9.024999999999997 48.73499999999999 39.71 0 0 0
123 5 7.219999999999998 46.92999999999999 43.31999999999999 0 0 0
124 3 7.219999999999998 48.73499999999999 45.125 0 0 0
125 5 9.024999999999997 46.92999999999999 45.125 0 0 0
126 2 9.024999999999997 48.73499999999999 43.31999999999999 0 0 0
127 2 7.219999999999998 46.92999999999999 46.92999999999999 0 0 0
128 2 7.219999999999998 48.73499999999999 48.73499999999999 0 0 0
129 5 9.024999999999997 46.92999999999999 48.73499999999999 0 0 0
130 4 9.024999999999997 48.73499999999999 46.92999999999999 0 0 0
131 3 7.219999999999998 46.92999999999999 50.54 0 0 0
134 2 9.024999999999997 48.73499999999999 50.54 0 0 0
148 5 9.024999999999997 50.54 34.295 0 0 0
149 1 7.219999999999998 50.54 36.1 0 0 0
151 1 9.024999999999997 50.54 37.904999999999994 0 0 0
153 4 7.219999999999998 50.54 39.71 0 0 0
155 4 9.024999999999997 50.54 41.515 0 0 0
157 1 7.219999999999998 50.54 43.31999999999999 0 0 0
159 4 9.024999999999997 50.54 45.125 0 0 0
161 3 7.219999999999998 50.54 46.92999999999999 0 0 0
163 2 9.024999999999997 50.54 48.73499999999999 0 0 0
165 2 7.219999999999998 50.54 50.54 0 0 0
248 2 12.634999999999996 27.074999999999996 50.54 0 0 0
249 1 10.829999999999998 30.685000000000002 48.73499999999999 0 0 0
250 5 12.634999999999996 28.88 48.73499999999999 0 0 0
251 1 12.634999999999996 30.685000000000002 46.92999999999999 0 0 0
252 4 10.829999999999998 28.88 50.54 0 0 0
255 3 12.634999999999996 30.685000000000002 50.54 0 0 0
257 3 10.829999999999998 34.295 45.125 0 0 0
258 4 12.634999999999996 32.489999999999995 45.125 0 0 0
259 1 12.634999999999996 34.295 43.31999999999999 0 0 0
260 4 10.829999999999998 32.489999999999995 46.92999999999999 0 0 0
261 5 10.829999999999998 34.295 48.73499999999999 0 0 0
262 2 12.634999999999996 32.489999999999995 48.73499999999999 0 0 0
263 2 12.634999999999996 34.295 46.92999999999999 0 0 0
264 5 10.829999999999998 32.489999999999995 50.54 0 0 0
267 4 12.634999999999996 34.295 50.54 0 0 0
273 3 10.829999999999998 37.904999999999994 41.515 0 0 0
274 3 12.634999999999996 36.1 41.515 0 0 0
275 1 12.634999999999996 37.904999999999994 39.71 0 0 0
276 4 10.829999999999998 36.1 43.31999999999999 0 0 0
277 2 10.829999999999998 37.904999999999994 45.125 0 0 0
278 2 12.634999999999996 36.1 45.125 0 0 0
279 5 12.634999999999996 37.904999999999994 43.31999999999999 0 0 0
280 3 10.829999999999998 36.1 46.92999999999999 0 0 0
281 1 10.829999999999998 37.904999999999994 48.73499999999999 0 0 0
282 2 12.634999999999996 36.1 48.73499999999999 0 0 0
283 3 12.634999999999996 37.904999999999994 46.92999999999999 0 0 0
284 3 10.829999999999998 36.1 50.54 0 0 0
287 4 12.634999999999996 37.904999999999994 50.54 0 0 0
297 2 10.829999999999998 41.515 37.904999999999994 0 0 0
298 4 12.634999999999996 39.71 37.904999999999994 0 0 0
299 2 12.634999999999996 41.515 36.1 0 0 0
300 2 10.829999999999998 39.71 39.71 0 0 0
301 5 10.829999999999998 41.515 41.515 0 0 0
302 5 12.634999999999996 39.71 41.515 0 0 0
303 1 12.634999999999996 41.515 39.71 0 0 0
304 1 10.829999999999998 39.71 43.31999999999999 0 0 0
305 2 10.829999999999998 41.515 45.125 0 0 0
306 4 12.634999999999996 39.71 45.125 0 0 0
307 5 12.634999999999996 41.515 43.31999999999999 0 0 0
308 2 10.829999999999998 39.71 46.92999999999999 0 0 0
309 2 10.829999999999998 41.515 48.73499999999999 0 0 0
310 3 12.634999999999996 39.71 48.73499999999999 0 0 0
311 3 12.634999999999996 41.515 46.92999999999999 0 0 0
312 5 10.829999999999998 39.71 50.54 0 0 0
315 2 12.634999999999996 41.515 50.54 0 0 0
329 4 10.829999999999998 45.125 34.295 0 0 0
330 2 12.634999999999996 43.31999999999999 34.295 0 0 0
331 3 12.634999999999996 45.125 32.489999999999995 0 0 0
332 3 10.829999999999998 43.31999999999999 36.1 0 0 0
333 3 10.829999999999998 45.125 37.904999999999994 0 0 0
334 2 12.634999999999996 43.31999999999999 37.904999999999994 0 0 0
335 3 12.634999999999996 45.125 36.1 0 0 0
336 2 10.829999999999998 43.31999999999999 39.71 0 0 0
337 3 10.829999999999998 45.125 41.515 0 0 0
338 4 12.634999999999996 43.31999999999999 41.515 0 0 0
339 2 12.634999999999996 45.125 39.71 0 0 0
340 3 10.829999999999998 43.31999999999999 43.31999999999999 0 0 0
341 3 10.829999999999998 45.125 45.125 0 0 0
342 5 12.634999999999996 43.31999999999999 45.125 0 0 0
343 5 12.634999999999996 45.125 43.31999999999999 0 0 0
344 3 10.829999999999998 43.31999999999999 46.92999999999999 0 0 0
345 5 10.829999999999998 45.125 48.73499999999999 0 0 0
346 2 12.634999999999996 43.31999999999999 48.73499999999999 0 0 0
347 5 12.634999999999996 45.125 46.92999999999999 0 0 0
348 3 10.829999999999998 43.31999999999999 50.54 0 0 0
351 1 12.634999999999996 45.125 50.54 0 0 0
369 1 10.829999999999998 48.73499999999999 30.685000000000002 0 0 0
370 1 12.634999999999996 46.92999999999999 30.685000000000002 0 0 0
371 4 12.634999999999996 48.73499999999999 28.88 0 0 0
372 3 10.829999999999998 46.92999999999999 32.489999999999995 0 0 0
373 1 10.829999999999998 48.73499999999999 34.295 0 0 0
374 1 12.634999999999996 46.92999999999999 34.295 0 0 0
375 5 12.634999999999996 48.73499999999999 32.489999999999995 0 0 0
376 2 10.829999999999998 46.92999999999999 36.1 0 0 0
377 2 10.829999999999998 48.73499999999999 37.904999999999994 0 0 0
378 1 12.634999999999996 46.92999999999999 37.904999999999994 0 0 0
379 1 12.634999999999996 48.73499999999999 36.1 0 0 0
380 5 10.829999999999998 46.92999999999999 39.71 0 0 0
381 1 10.829999999999998 48.73499999999999 41.515 0 0 0
382 4 12.634999999999996 46.92999999999999 41.515 0 0 0
383 5 12.634999999999996 48.73499999999999 39.71 0 0 0
384 2 10.829999999999998 46.92999999999999 43.31999999999999 0 0 0
385 5 10.829999999999998 48.73499999999999 45.125 0 0 0
386 3 12.634999999999996 46.92999999999999 45.125 0 0 0
387 2 12.634999999999996 48.73499999999999 43.31999999999999 0 0 0
388 4 10.829999999999998 46.92999999999999 46.92999999999999 0 0 0
389 1 10.829999999999998 48.73499999999999 48.73499999999999 0 0 0
390 2 12.634999999999996 46.92999999999999 48.73499999999999 0 0 0
391 2 12.634999999999996 48.73499999999999 46.92999999999999 0 0 0
392 4 10.829999999999998 46.92999999999999 50.54 0 0 0
395 1 12.634999999999996 48.73499999999999 50.54 0 0 0
417 3 12.634999999999996 50.54 27.074999999999996 0 0 0
418 5 10.829999999999998 50.54 28.88 0 0 0
420 5 12.634999999999996 50.54 30.685000000000002 0 0 0
422 1 10.829999999999998 50.54 32.489999999999995 0 0 0
424 1 12.634999999999996 50.54 34.295 0 0 0
426 5 10.829999999999998 50.54 36.1 0 0 0
428 5 12.634999999999996 50.54 37.904999999999994 0 0 0
430 1 10.829999999999998 50.54 39.71 0 0 0
432 3 12.634999999999996 50.54 41.515 0 0 0
434 5 10.829999999999998 50.54 43.31999999999999 0 0 0
436 3 12.634999999999996 50.54 45.125 0 0 0
438 4 10.829999999999998 50.54 46.92999999999999 0 0 0
440 3 12.634999999999996 50.54 48.73499999999999 0 0 0
442 1 10.829999999999998 50.54 50.54 0 0 0
613 5 16.244999999999994 19.855 50.54 0 0 0
614 4 14.440000000000003 23.464999999999996 48.73499999999999 0 0 0
615 5 16.244999999999994 21.659999999999997 48.73499999999999 0 0 0
616 3 16.244999999999994 23.464999999999996 46.92999999999999 0 0 0
617 5 14.440000000000003 21.659999999999997 50.54 0 0 0
620 4 16.244999999999994 23.464999999999996 50.54 0 0 0
622 5 14.440000000000003 27.074999999999996 45.125 0 0 0
623 5 16.244999999999994 25.27 45.125 0 0 0
624 1 16.244999999999994 27.074999999999996 43.31999999999999 0 0 0
625 4 14.440000000000003 25.27 46.92999999999999 0 0 0
626 5 14.440000000000003 27.074999999999996 48.73499999999999 0 0 0
627 1 16.244999999999994 25.27 48.73499999999999 0 0 0
628 1 16.244999999999994 27.074999999999996 46.92999999999999 0 0 0
629 2 14.440000000000003 25.27 50.54 0 0 0
632 4 16.244999999999994 27.074999999999996 50.54 0 0 0
638 4 14.440000000000003 30.685000000000002 41.515 0 0 0
639 4 16.244999999999994 28.88 41.515 0 0 0
640 2 16.244999999999994 30.685000000000002 39.71 0 0 0
641 3 14.440000000000003 28.88 43.31999999999999 0 0 0
642 5 14.440000000000003 30.685000000000002 45.125 0 0 0
643 4 16.244999999999994 28.88 45.125 0 0 0
644 1 16.244999999999994 30.685000000000002 43.31999999999999 0 0 0
645 5 14.440000000000003 28.88 46.92999999999999 0 0 0
646 3 14.440000000000003 30.685000000000002 48.73499999999999 0 0 0
647 4 16.244999999999994 28.88 48.73499999999999 0 0 0
648 5 16.244999999999994 30.685000000000002 46.92999999999999 0 0 0
649 1 14.440000000000003 28.88 50.54 0 0 0
652 1 16.244999999999994 30.685000000000002 50.54 0 0 0
662 2 14.440000000000003 34.295 37.904999999999994 0 0 0
663 4 16.244999999999994 32.489999999999995 37.904999999999994 0 0 0
664 1 16.244999999999994 34.295 36.1 0 0 0
665 2 14.440000000000003 32.489999999999995 39.71 0 0 0
666 2 14.440000000000003 34.295 41.515 0 0 0
667 4 16.244999999999994 32.489999999999995 41.515 0 0 0
668 1 16.244999999999994 34.295 39.71 0 0 0
669 3 14.440000000000003 32.489999999999995 43.31999999999999 0 0 0
670 3 14.440000000000003 34.295 45.125 0 0 0
671 1 16.244999999999994 32.489999999999995 45.125 0 0 0
672 5 16.244999999999994 34.295 43.31999999999999 0 0 0
673 5 14.440000000000003 32.489999999999995 46.92999999999999 0 0 0
674 2 14.440000000000003 34.295 48.73499999999999 0 0 0
675 4 16.244999999999994 32.489999999999995 48.73499999999999 0 0 0
676 5 16.244999999999994 34.295 46.92999999999999 0 0 0
677 4 14.440000000000003 32.489999999999995 50.54 0 0 0
680 1 16.244999999999994 34.295 50.54 0 0 0
694 1 14.440000000000003 37.904999999999994 34.295 0 0 0
695 3 16.244999999999994 36.1 34.295 0 0 0
696 1 16.244999999999994 37.904999999999994 32.489999999999995 0 0 0
697 1 14.440000000000003 36.1 36.1 0 0 0
698 2 14.440000000000003 37.904999999999994 37.904999999999994 0 0 0
699 2 16.244999999999994 36.1 37.904999999999994 0 0 0
700 4 16.244999999999994 37.904999999999994 36.1 0 0 0
701 5 14.440000000000003 36.1 39.71 0 0 0
702 2 14.440000000000003 37.904999999999994 41.515 0 0 0
703 3 16.244999999999994 36.1 41.515 0 0 0
704 1 16.244999999999994 37.904999999999994 39.71 0 0 0
705 2 14.440000000000003 36.1 43.31999999999999 0 0 0
706 5 14.440000000000003 37.904999999999994 45.125 0 0 0
707 4 16.244999999999994 36.1 45.125 0 0 0
708 1 16.244999999999994 37.904999999999994 43.31999999999999 0 0 0
709 1 14.440000000000003 36.1 46.92999999999999 0 0 0
710 1 14.440000000000003 37.904999999999994 48.73499999999999 0 0 0
711 1 16.244999999999994 36.1 48.73499999999999 0 0 0
712 4 16.244999999999994 37.904999999999994 46.92999999999999 0 0 0
713 4 14.440000000000003 36.1 50.54 0 0 0
716 4 16.244999999999994 37.904999999999994 50.54 0 0 0
734 2 14.440000000000003 41.515 30.685000000000002 0 0 0
735 2 16.244999999999994 39.71 30.685000000000002 0 0 0
736 2 16.244999999999994 41.515 28.88 0 0 0
737 4 14.440000000000003 39.71 32.489999999999995 0 0 0
738 3 14.440000000000003 41.515 34.295 0 0 0
739 3 16.244999999999994 39.71 34.295 0 0 0
740 2 16.244999999999994 41.515 32.489999999999995 0 0 0
741 1 14.440000000000003 39.71 36.1 0 0 0
742 1 14.440000000000003 41.515 37.904999999999994 0 0 0
743 4 16.244999999999994 39.71 37.904999999999994 0 0 0
744 1 16.244999999999994 41.515 36.1 0 0 0
745 5 14.440000000000003 39.71 39.71 0 0 0
746 4 14.440000000000003 41.515 41.515 0 0 0
747 3 16.244999999999994 39.71 41.515 0 0 0
748 2 16.244999999999994 41.515 39.71 0 0 0
749 1 14.440000000000003 39.71 43.31999999999999 0 0 0
750 3 14.440000000000003 41.515 45.125 0 0 0
751 1 16.244999999999994 39.71 45.125 0 0 0
752 2 16.244999999999994 41.515 43.31999999999999 0 0 0
753 1 14.440000000000003 39.71 46.92999999999999 0 0 0
754 1 14.440000000000003 41.515 48.73499999999999 0 0 0
755 5 16.244999999999994 39.71 48.73499999999999 0 0 0
756 5 16.244999999999994 41.515 46.92999999999999 0 0 0
757 1 14.440000000000003 39.71 50.54 0 0 0
760 3 16.244999999999994 41.515 50.54 0 0 0
782 3 14.440000000000003 45.125 27.074999999999996 0 0 0
783 3 16.244999999999994 43.31999999999999 27.074999999999996 0 0 0
784 2 16.244999999999994 45.125 25.27 0 0 0
785 2 14.440000000000003 43.31999999999999 28.88 0 0 0
786 4 14.440000000000003 45.125 30.685000000000002 0 0 0
787 5 16.244999999999994 43.31999999999999 30.685000000000002 0 0 0
788 2 16.244999999999994 45.125 28.88 0 0 0
789 3 14.440000000000003 43.31999999999999 32.489999999999995 0 0 0
790 4 14.440000000000003 45.125 34.295 0 0 0
791 2 16.244999999999994 43.31999999999999 34.295 0 0 0
792 5 16.244999999999994 45.125 32.489999999999995 0 0 0
793 1 14.440000000000003 43.31999999999999 36.1 0 0 0
794 5 14.440000000000003 45.125 37.904999999999994 0 0 0
795 4 16.244999999999994 43.31999999999999 37.904999999999994 0 0 0
796 4 16.244999999999994 45.125 36.1 0 0 0
797 3 14.440000000000003 43.31999999999999 39.71 0 0 0
798 4 14.440000000000003 45.125 41.515 0 0 0
799 5 16.244999999999994 43.31999999999999 41.515 0 0 0
800 5 16.244999999999994 45.125 39.71 0 0 0
801 2 14.440000000000003 43.31999999999999 43.31999999999999 0 0 0
802 2 14.440000000000003 45.125 45.125 0 0 0
803 5 16.244999999999994 43.31999999999999 45.125 0 0 0
804 5 16.244999999999994 45.125 43.31999999999999 0 0 0
805 1 14.440000000000003 43.31999999999999 46.92999999999999 0 0 0
806 1 14.440000000000003 45.125 48.73499999999999 0 0 0
807 3 16.244999999999994 43.31999999999999 48.73499999999999 0 0 0
808 4 16.244999999999994 45.125 46.92999999999999 0 0 0
809 1 14.440000000000003 43.31999999999999 50.54 0 0 0
812 4 16.244999999999994 45.125 50.54 0 0 0
838 1 14.440000000000003 48.73499999999999 23.464999999999996 0 0 0
839 3 16.244999999999994 46.92999999999999 23.464999999999996 0 0 0
840 2 16.244999999999994 48.73499999999999 21.659999999999997 0 0 0
841 2 14.440000000000003 46.92999999999999 25.27 0 0 0
842 1 14.440000000000003 48.73499999999999 27.074999999999996 0 0 0
843 3 16.244999999999994 46.92999999999999 27.074999999999996 0 0 0
844 3 16.244999999999994 48.73499999999999 25.27 0 0 0
845 4 14.440000000000003 46.92999999999999 28.88 0 0 0
846 4 14.440000000000003 48.73499999999999 30.685000000000002 0 0 0
847 5 16.244999999999994 46.92999999999999 30.685000000000002 0 0 0
848 1 16.244999999999994 48.73499999999999 28.88 0 0 0
849 1 14.440000000000003 46.92999999999999 32.489999999999995 0 0 0
850 3 14.440000000000003 48.73499999999999 34.295 0 0 0
851 2 16.244999999999994 46.92999999999999 34.295 0 0 0
852 4 16.244999999999994 48.73499999999999 32.489999999999995 0 0 0
853 2 14.440000000000003 46.92999999999999 36.1 0 0 0
854 3 14.440000000000003 48.73499999999999 37.904999999999994 0 0 0
855 5 16.244999999999994 46.92999999999999 37.904999999999994 0 0 0
856 3 16.244999999999994 48.73499999999999 36.1 0 0 0
857 5 14.440000000000003 46.92999999999999 39.71 0 0 0
858 1 14.440000000000003 48.73499999999999 41.515 0 0 0
859 2 16.244999999999994 46.92999999999999 41.515 0 0 0
860 5 16.244999999999994 48.73499999999999 39.71 0 0 0
861 3 14.440000000000003 46.92999999999999 43.31999999999999 0 0 0
862 3 14.440000000000003 48.73499999999999 45.125 0 0 0
863 1 16.244999999999994 46.92999999999999 45.125 0 0 0
864 5 16.244999999999994 48.73499999999999 43.31999999999999 0 0 0
865 1 14.440000000000003 46.92999999999999 46.92999999999999 0 0 0
866 5 14.440000000000003 48.73499999999999 48.73499999999999 0 0 0
867 1 16.244999999999994 46.92999999999999 48.73499999999999 0 0 0
868 1 16.244999999999994 48.73499999999999 46.92999999999999 0 0 0
869 3 14.440000000000003 46.92999999999999 50.54 0 0 0
872 4 16.244999999999994 48.73499999999999 50.54 0 0 0
902 1 16.244999999999994 50.54 19.855 0 0 0
903 3 14.440000000000003 50.54 21.659999999999997 0 0 0
905 2 16.244999999999994 50.54 23.464999999999996 0 0 0
907 5 14.440000000000003 50.54 25.27 0 0 0
909 4 16.244999999999994 50.54 27.074999999999996 0 0 0
911 1 14.440000000000003 50.54 28.88 0 0 0
913 1 16.244999999999994 50.54 30.685000000000002 0 0 0
915 1 14.440000000000003 50.54 32.489999999999995 0 0 0
917 4 16.244999999999994 50.54 34.295 0 0 0
919 1 14.440000000000003 50.54 36.1 0 0 0
921 2 16.244999999999994 50.54 37.904999999999994 0 0 0
923 5 14.440000000000003 50.54 39.71 0 0 0
925 3 16.244999999999994 50.54 41.515 0 0 0
927 4 14.440000000000003 50.54 43.31999999999999 0 0 0
929 2 16.244999999999994 50.54 45.125 0 0 0
931 1 14.440000000000003 50.54 46.92999999999999 0 0 0
933 4 16.244999999999994 50.54 48.73499999999999 0 0 0
935 2 14.440000000000003 50.54 50.54 0 0 0
1226 5 19.855 16.244999999999994 50.54 0 0 0
1227 2 18.050000000000004 19.855 45.125 0 0 0
1228 3 19.855 18.050000000000004 45.125 0 0 0
1229 5 19.855 19.855 43.31999999999999 0 0 0
1230 1 18.050000000000004 18.050000000000004 46.92999999999999 0 0 0
1231 2 18.050000000000004 19.855 48.73499999999999 0 0 0
1232 3 19.855 18.050000000000004 48.73499999999999 0 0 0
1233 3 19.855 19.855 46.92999999999999 0 0 0
1234 5 18.050000000000004 18.050000000000004 50.54 0 0 0
1237 4 19.855 19.855 50.54 0 0 0
1243 5 18.050000000000004 23.464999999999996 41.515 0 0 0
1244 1 19.855 21.659999999999997 41.515 0 0 0
1245 1 19.855 23.464999999999996 39.71 0 0 0
1246 1 18.050000000000004 21.659999999999997 43.31999999999999 0 0 0
1247 3 18.050000000000004 23.464999999999996 45.125 0 0 0
1248 4 19.855 21.659999999999997 45.125 0 0 0
1249 2 19.855 23.464999999999996 43.31999999999999 0 0 0
1250 3 18.050000000000004 21.659999999999997 46.92999999999999 0 0 0
1251 1 18.050000000000004 23.464999999999996 48.73499999999999 0 0 0
1252 5 19.855 21.659999999999997 48.73499999999999 0 0 0
1253 1 19.855 23.464999999999996 46.92999999999999 0 0 0
1254 5 18.050000000000004 21.659999999999997 50.54 0 0 0
1257 5 19.855 23.464999999999996 50.54 0 0 0
1267 2 18.050000000000004 27.074999999999996 37.904999999999994 0 0 0
1268 2 19.855 25.27 37.904999999999994 0 0 0
1269 1 19.855 27.074999999999996 36.1 0 0 0
1270 1 18.050000000000004 25.27 39.71 0 0 0
1271 2 18.050000000000004 27.074999999999996 41.515 0 0 0
1272 4 19.855 25.27 41.515 0 0 0
1273 5 19.855 27.074999999999996 39.71 0 0 0
1274 2 18.050000000000004 25.27 43.31999999999999 0 0 0
1275 3 18.050000000000004 27.074999999999996 45.125 0 0 0
1276 5 19.855 25.27 45.125 0 0 0
1277 3 19.855 27.074999999999996 43.31999999999999 0 0 0
1278 3 18.050000000000004 25.27 46.92999999999999 0 0 0
1279 1 18.050000000000004 27.074999999999996 48.73499999999999 0 0 0
1280 2 19.855 25.27 48.73499999999999 0 0 0
1281 2 19.855 27.074999999999996 46.92999999999999 0 0 0
1282 3 18.050000000000004 25.27 50.54 0 0 0
1285 5 19.855 27.074999999999996 50.54 0 0 0
1299 4 18.050000000000004 30.685000000000002 34.295 0 0 0
1300 1 19.855 28.88 34.295 0 0 0
1301 3 19.855 30.685000000000002 32.489999999999995 0 0 0
1302 1 18.050000000000004 28.88 36.1 0 0 0
1303 4 18.050000000000004 30.685000000000002 37.904999999999994 0 0 0
1304 5 19.855 28.88 37.904999999999994 0 0 0
1305 3 19.855 30.685000000000002 36.1 0 0 0
1306 1 18.050000000000004 28.88 39.71 0 0 0
1307 2 18.050000000000004 30.685000000000002 41.515 0 0 0
1308 1 19.855 28.88 41.515 0 0 0
1309 2 19.855 30.685000000000002 39.71 0 0 0
1310 5 18.050000000000004 28.88 43.31999999999999 0 0 0
1311 1 18.050000000000004 30.685000000000002 45.125 0 0 0
1312 2 19.855 28.88 45.125 0 0 0
1313 2 19.855 30.685000000000002 43.31999999999999 0 0 0
1314 5 18.050000000000004 28.88 46.92999999999999 0 0 0
1315 3 18.050000000000004 30.685000000000002 48.73499999999999 0 0 0
1316 1 19.855 28.88 48.73499999999999 0 0 0
1317 1 19.855 30.685000000000002 46.92999999999999 0 0 0
1318 2 18.050000000000004 28.88 50.54 0 0 0
1321 5 19.855 30.685000000000002 50.54 0 0 0
1339 4 18.050000000000004 34.295 30.685000000000002 0 0 0
1340 4 19.855 32.489999999999995 30.685000000000002 0 0 0
1341 4 19.855 34.295 28.88 0 0 0
1342 2 18.050000000000004 32.489999999999995 32.489999999999995 0 0 0
1343 2 18.050000000000004 34.295 34.295 0 0 0
1344 1 19.855 32.489999999999995 34.295 0 0 0
1345 5 19.855 34.295 32.489999999999995 0 0 0
1346 4 18.050000000000004 32.489999999999995 36.1 0 0 0
1347 2 18.050000000000004 34.295 37.904999999999994 0 0 0
1348 3 19.855 32.489999999999995 37.904999999999994 0 0 0
1349 1 19.855 34.295 36.1 0 0 0
1350 1 18.050000000000004 32.489999999999995 39.71 0 0 0
1351 1 18.050000000000004 34.295 41.515 0 0 0
1352 2 19.855 32.489999999999995 41.515 0 0 0
1353 5 19.855 34.295 39.71 0 0 0
1354 5 18.050000000000004 32.489999999999995 43.31999999999999 0 0 0
1355 5 18.050000000000004 34.295 45.125 0 0 0
1356 1 19.855 32.489999999999995 45.125 0 0 0
1357 4 19.855 34.295 43.31999999999999 0 0 0
1358 4 18.050000000000004 32.489999999999995 46.92999999999999 0 0 0
1359 4 18.050000000000004 34.295 48.73499999999999 0 0 0
1360 2 19.855 32.489999999999995 48.73499999999999 0 0 0
1361 2 19.855 34.295 46.92999999999999 0 0 0
1362 3 18.050000000000004 32.489999999999995 50.54 0 0 0
1365 1 19.855 34.295 50.54 0 0 0
1387 2 18.050000000000004 37.904999999999994 27.074999999999996 0 0 0
1388 5 19.855 36.1 27.074999999999996 0 0 0
1389 3 19.855 37.904999999999994 25.27 0 0 0
1390 5 18.050000000000004 36.1 28.88 0 0 0
1391 4 18.050000000000004 37.904999999999994 30.685000000000002 0 0 0
1392 1 19.855 36.1 30.685000000000002 0 0 0
1393 5 19.855 37.904999999999994 28.88 0 0 0
1394 2 18.050000000000004 36.1 32.489999999999995 0 0 0
1395 2 18.050000000000004 37.904999999999994 34.295 0 0 0
1396 1 19.855 36.1 34.295 0 0 0
1397 1 19.855 37.904999999999994 32.489999999999995 0 0 0
1398 5 18.050000000000004 36.1 36.1 0 0 0
1399 3 18.050000000000004 37.904999999999994 37.904999999999994 0 0 0
1400 5 19.855 36.1 37.904999999999994 0 0 0
1401 5 19.855 37.904999999999994 36.1 0 0 0
1402 2 18.050000000000004 36.1 39.71 0 0 0
1403 5 18.050000000000004 37.904999999999994 41.515 0 0 0
1404 2 19.855 36.1 41.515 0 0 0
1405 3 19.855 37.904999999999994 39.71 0 0 0
1406 5 18.050000000000004 36.1 43.31999999999999 0 0 0
1407 4 18.050000000000004 37.904999999999994 45.125 0 0 0
1408 1 19.855 36.1 45.125 0 0 0
1409 3 19.855 37.904999999999994 43.31999999999999 0 0 0
1410 3 18.050000000000004 36.1 46.92999999999999 0 0 0
1411 3 18.050000000000004 37.904999999999994 48.73499999999999 0 0 0
1412 2 19.855 36.1 48.73499999999999 0 0 0
1413 3 19.855 37.904999999999994 46.92999999999999 0 0 0
1414 5 18.050000000000004 36.1 50.54 0 0 0
1417 1 19.855 37.904999999999994 50.54 0 0 0
1443 3 18.050000000000004 41.515 23.464999999999996 0 0 0
1444 5 19.855 39.71 23.464999999999996 0 0 0
1445 2 19.855 41.515 21.659999999999997 0 0 0
1446 5 18.050000000000004 39.71 25.27 0 0 0
1447 3 18.050000000000004 41.515 27.074999999999996 0 0 0
1448 5 19.855 39.71 27.074999999999996 0 0 0
1449 2 19.855 41.515 25.27 0 0 0
1450 4 18.050000000000004 39.71 28.88 0 0 0
1451 2 18.050000000000004 41.515 30.685000000000002 0 0 0
1452 4 19.855 39.71 30.685000000000002 0 0 0
1453 4 19.855 41.515 28.88 0 0 0
1454 4 18.050000000000004 39.71 32.489999999999995 0 0 0
1455 5 18.050000000000004 41.515 34.295 0 0 0
1456 5 19.855 39.71 34.295 0 0 0
1457 2 19.855 41.515 32.489999999999995 0 0 0
1458 5 18.050000000000004 39.71 36.1 0 0 0
1459 4 18.050000000000004 41.515 37.904999999999994 0 0 0
1460 2 19.855 39.71 37.904999999999994 0 0 0
1461 5 19.855 41.515 36.1 0 0 0
1462 4 18.050000000000004 39.71 39.71 0 0 0
1463 5 18.050000000000004 41.515 41.515 0 0 0
1464 3 19.855 39.71 41.515 0 0 0
1465 1 19.855 41.515 39.71 0 0 0
1466 5 18.050000000000004 39.71 43.31999999999999 0 0 0
1467 2 18.050000000000004 41.515 45.125 0 0 0
1468 2 19.855 39.71 45.125 0 0 0
1469 3 19.855 41.515 43.31999999999999 0 0 0
1470 5 18.050000000000004 39.71 46.92999999999999 0 0 0
1471 1 18.050000000000004 41.515 48.73499999999999 0 0 0
1472 3 19.855 39.71 48.73499999999999 0 0 0
1473 1 19.855 41.515 46.92999999999999 0 0 0
1474 4 18.050000000000004 39.71 50.54 0 0 0
1477 4 19.855 41.515 50.54 0 0 0
1507 2 18.050000000000004 45.125 19.855 0 0 0
1508 2 19.855 43.31999999999999 19.855 0 0 0
1509 1 19.855 45.125 18.050000000000004 0 0 0
1510 2 18.050000000000004 43.31999999999999 21.659999999999997 0 0 0
1511 2 18.050000000000004 45.125 23.464999999999996 0 0 0
1512 4 19.855 43.31999999999999 23.464999999999996 0 0 0
1513 4 19.855 45.125 21.659999999999997 0 0 0
1514 2 18.050000000000004 43.31999999999999 25.27 0 0 0
1515 2 18.050000000000004 45.125 27.074999999999996 0 0 0
1516 3 19.855 43.31999999999999 27.074999999999996 0 0 0
1517 2 19.855 45.125 25.27 0 0 0
1518 2 18.050000000000004 43.31999999999999 28.88 0 0 0
1519 2 18.050000000000004 45.125 30.685000000000002 0 0 0
1520 3 19.855 43.31999999999999 30.685000000000002 0 0 0
1521 4 19.855 45.125 28.88 0 0 0
1522 3 18.050000000000004 43.31999999999999 32.489999999999995 0 0 0
1523 1 18.050000000000004 45.125 34.295 0 0 0
1524 1 19.855 43.31999999999999 34.295 0 0 0
1525 2 19.855 45.125 32.489999999999995 0 0 0
1526 4 18.050000000000004 43.31999999999999 36.1 0 0 0
1527 3 18.050000000000004 45.125 37.904999999999994 0 0 0
1528 3 19.855 43.31999999999999 37.904999999999994 0 0 0
1529 5 19.855 45.125 36.1 0 0 0
1530 3 18.050000000000004 43.31999999999999 39.71 0 0 0
1531 2 18.050000000000004 45.125 41.515 0 0 0
1532 1 19.855 43.31999999999999 41.515 0 0 0
1533 4 19.855 45.125 39.71 0 0 0
1534 4 18.050000000000004 43.31999999999999 43.31999999999999 0 0 0
1535 5 18.050000000000004 45.125 45.125 0 0 0
1536 2 19.855 43.31999999999999 45.125 0 0 0
1537 2 19.855 45.125 43.31999999999999 0 0 0
1538 2 18.050000000000004 43.31999999999999 46.92999999999999 0 0 0
1539 1 18.050000000000004 45.125 48.73499999999999 0 0 0
1540 5 19.855 43.31999999999999 48.73499999999999 0 0 0
1541 3 19.855 45.125 46.92999999999999 0 0 0
1542 3 18.050000000000004 43.31999999999999 50.54 0 0 0
1545 2 19.855 45.125 50.54 0 0 0
1579 1 18.050000000000004 46.92999999999999 18.050000000000004 0 0 0
1580 2 18.050000000000004 48.73499999999999 19.855 0 0 0
1581 4 19.855 46.92999999999999 19.855 0 0 0
1582 1 19.855 48.73499999999999 18.050000000000004 0 0 0
1583 5 18.050000000000004 46.92999999999999 21.659999999999997 0 0 0
1584 2 18.050000000000004 48.73499999999999 23.464999999999996 0 0 0
1585 2 19.855 46.92999999999999 23.464999999999996 0 0 0
1586 4 19.855 48.73499999999999 21.659999999999997 0 0 0
1587 3 18.050000000000004 46.92999999999999 25.27 0 0 0
1588 3 18.050000000000004 48.73499999999999 27.074999999999996 0 0 0
1589 5 19.855 46.92999999999999 27.074999999999996 0 0 0
1590 1 19.855 48.73499999999999 25.27 0 0 0
1591 1 18.050000000000004 46.92999999999999 28.88 0 0 0
1592 4 18.050000000000004 48.73499999999999 30.685000000000002 0 0 0
1593 1 19.855 46.92999999999999 30.685000000000002 0 0 0
1594 3 19.855 48.73499999999999 28.88 0 0 0
1595 2 18.050000000000004 46.92999999999999 32.489999999999995 0 0 0
1596 3 18.050000000000004 48.73499999999999 34.295 0 0 0
1597 1 19.855 46.92999999999999 34.295 0 0 0