model_files/NiFeCrCoAl/NiFeCrCoAl_30000/NiFeCrCoAl_211/NiFeCrCoAl_211_fcc_30069_temp.data (written by ASE) 

30069 	 atoms 
5  atom types
0.0                     103  xlo xhi
0.0                     103  ylo yhi
0.0                     103  zlo zhi


Atoms 

     1   1      1.8049999999999995      48.734999999999992      50.539999999999999
     2   1      1.8049999999999995      50.539999999999999      48.734999999999992
     3   1                       0      50.539999999999999      50.539999999999999
     4   1      1.8049999999999995      50.539999999999999      52.344999999999992
     5   1      1.8049999999999995      52.344999999999992      50.539999999999999
     6   1      5.4149999999999991      41.515000000000001      50.539999999999999
     7   1       3.609999999999999                  45.125      48.734999999999992
     8   1      5.4149999999999991      43.319999999999993      48.734999999999992
     9   1      5.4149999999999991                  45.125      46.929999999999993
    10   1       3.609999999999999      43.319999999999993      50.539999999999999
    11   1       3.609999999999999                  45.125      52.344999999999992
    12   1      5.4149999999999991      43.319999999999993      52.344999999999992
    13   1      5.4149999999999991                  45.125      50.539999999999999
    14   1      5.4149999999999991                  45.125      54.149999999999991
    15   1       3.609999999999999      48.734999999999992                  45.125
    16   1      5.4149999999999991      46.929999999999993                  45.125
    17   1      5.4149999999999991      48.734999999999992      43.319999999999993
    18   1       3.609999999999999      46.929999999999993      46.929999999999993
    19   1       3.609999999999999      48.734999999999992      48.734999999999992
    20   1      5.4149999999999991      46.929999999999993      48.734999999999992
    21   1      5.4149999999999991      48.734999999999992      46.929999999999993
    22   1       3.609999999999999      46.929999999999993      50.539999999999999
    23   1       3.609999999999999      48.734999999999992      52.344999999999992
    24   1      5.4149999999999991      46.929999999999993      52.344999999999992
    25   1      5.4149999999999991      48.734999999999992      50.539999999999999
    26   1       3.609999999999999      46.929999999999993      54.149999999999991
    27   1       3.609999999999999      48.734999999999992      55.954999999999998
    28   1      5.4149999999999991      46.929999999999993      55.954999999999998
    29   1      5.4149999999999991      48.734999999999992      54.149999999999991
    30   1      5.4149999999999991      48.734999999999992      57.759999999999998
    31   1      5.4149999999999991      50.539999999999999      41.515000000000001
    32   1       3.609999999999999      50.539999999999999      43.319999999999993
    33   1       3.609999999999999      52.344999999999992                  45.125
    34   1      5.4149999999999991      50.539999999999999                  45.125
    35   1      5.4149999999999991      52.344999999999992      43.319999999999993
    36   1       3.609999999999999      50.539999999999999      46.929999999999993
    37   1       3.609999999999999      52.344999999999992      48.734999999999992
    38   1      5.4149999999999991      50.539999999999999      48.734999999999992
    39   1      5.4149999999999991      52.344999999999992      46.929999999999993
    40   1       3.609999999999999      50.539999999999999      50.539999999999999
    41   1       3.609999999999999      52.344999999999992      52.344999999999992
    42   1      5.4149999999999991      50.539999999999999      52.344999999999992
    43   1      5.4149999999999991      52.344999999999992      50.539999999999999
    44   1       3.609999999999999      50.539999999999999      54.149999999999991
    45   1       3.609999999999999      52.344999999999992      55.954999999999998
    46   1      5.4149999999999991      50.539999999999999      55.954999999999998
    47   1      5.4149999999999991      52.344999999999992      54.149999999999991
    48   1       3.609999999999999      50.539999999999999      57.759999999999998
    49   1      5.4149999999999991      50.539999999999999      59.564999999999991
    50   1      5.4149999999999991      52.344999999999992      57.759999999999998
    51   1      5.4149999999999991      54.149999999999991                  45.125
    52   1       3.609999999999999      54.149999999999991      46.929999999999993
    53   1       3.609999999999999      55.954999999999998      48.734999999999992
    54   1      5.4149999999999991      54.149999999999991      48.734999999999992
    55   1      5.4149999999999991      55.954999999999998      46.929999999999993
    56   1       3.609999999999999      54.149999999999991      50.539999999999999
    57   1       3.609999999999999      55.954999999999998      52.344999999999992
    58   1      5.4149999999999991      54.149999999999991      52.344999999999992
    59   1      5.4149999999999991      55.954999999999998      50.539999999999999
    60   1       3.609999999999999      54.149999999999991      54.149999999999991
    61   1      5.4149999999999991      54.149999999999991      55.954999999999998
    62   1      5.4149999999999991      55.954999999999998      54.149999999999991
    63   1      5.4149999999999991      57.759999999999998      48.734999999999992
    64   1       3.609999999999999      57.759999999999998      50.539999999999999
    65   1      5.4149999999999991      57.759999999999998      52.344999999999992
    66   1      5.4149999999999991      59.564999999999991      50.539999999999999
    67   1      9.0249999999999968      34.295000000000002      50.539999999999999
    68   1       7.219999999999998      37.904999999999994      48.734999999999992
    69   1      9.0249999999999968      36.100000000000001      48.734999999999992
    70   1      9.0249999999999968      37.904999999999994      46.929999999999993
    71   1       7.219999999999998      36.100000000000001      50.539999999999999
    72   1       7.219999999999998      37.904999999999994      52.344999999999992
    73   1      9.0249999999999968      36.100000000000001      52.344999999999992
    74   1      9.0249999999999968      37.904999999999994      50.539999999999999
    75   1      9.0249999999999968      37.904999999999994      54.149999999999991
    76   1       7.219999999999998      41.515000000000001                  45.125
    77   1      9.0249999999999968      39.710000000000001                  45.125
    78   1      9.0249999999999968      41.515000000000001      43.319999999999993
    79   1       7.219999999999998      39.710000000000001      46.929999999999993
    80   1       7.219999999999998      41.515000000000001      48.734999999999992
    81   1      9.0249999999999968      39.710000000000001      48.734999999999992
    82   1      9.0249999999999968      41.515000000000001      46.929999999999993
    83   1       7.219999999999998      39.710000000000001      50.539999999999999
    84   1       7.219999999999998      41.515000000000001      52.344999999999992
    85   1      9.0249999999999968      39.710000000000001      52.344999999999992
    86   1      9.0249999999999968      41.515000000000001      50.539999999999999
    87   1       7.219999999999998      39.710000000000001      54.149999999999991
    88   1       7.219999999999998      41.515000000000001      55.954999999999998
    89   1      9.0249999999999968      39.710000000000001      55.954999999999998
    90   1      9.0249999999999968      41.515000000000001      54.149999999999991
    91   1      9.0249999999999968      41.515000000000001      57.759999999999998
    92   1       7.219999999999998                  45.125      41.515000000000001
    93   1      9.0249999999999968      43.319999999999993      41.515000000000001
    94   1      9.0249999999999968                  45.125      39.710000000000001
    95   1       7.219999999999998      43.319999999999993      43.319999999999993
    96   1       7.219999999999998                  45.125                  45.125
    97   1      9.0249999999999968      43.319999999999993                  45.125
    98   1      9.0249999999999968                  45.125      43.319999999999993
    99   1       7.219999999999998      43.319999999999993      46.929999999999993
   100   1       7.219999999999998                  45.125      48.734999999999992
   101   1      9.0249999999999968      43.319999999999993      48.734999999999992
   102   1      9.0249999999999968                  45.125      46.929999999999993
   103   1       7.219999999999998      43.319999999999993      50.539999999999999
   104   1       7.219999999999998                  45.125      52.344999999999992
   105   1      9.0249999999999968      43.319999999999993      52.344999999999992
   106   1      9.0249999999999968                  45.125      50.539999999999999
   107   1       7.219999999999998      43.319999999999993      54.149999999999991
   108   1       7.219999999999998                  45.125      55.954999999999998
   109   1      9.0249999999999968      43.319999999999993      55.954999999999998
   110   1      9.0249999999999968                  45.125      54.149999999999991
   111   1       7.219999999999998      43.319999999999993      57.759999999999998
   112   1       7.219999999999998                  45.125      59.564999999999991
   113   1      9.0249999999999968      43.319999999999993      59.564999999999991
   114   1      9.0249999999999968                  45.125      57.759999999999998
   115   1      9.0249999999999968                  45.125      61.370000000000005
   116   1       7.219999999999998      48.734999999999992      37.904999999999994
   117   1      9.0249999999999968      46.929999999999993      37.904999999999994
   118   1      9.0249999999999968      48.734999999999992      36.100000000000001
   119   1       7.219999999999998      46.929999999999993      39.710000000000001
   120   1       7.219999999999998      48.734999999999992      41.515000000000001
   121   1      9.0249999999999968      46.929999999999993      41.515000000000001
   122   1      9.0249999999999968      48.734999999999992      39.710000000000001
   123   1       7.219999999999998      46.929999999999993      43.319999999999993
   124   1       7.219999999999998      48.734999999999992                  45.125
   125   1      9.0249999999999968      46.929999999999993                  45.125
   126   1      9.0249999999999968      48.734999999999992      43.319999999999993
   127   1       7.219999999999998      46.929999999999993      46.929999999999993
   128   1       7.219999999999998      48.734999999999992      48.734999999999992
   129   1      9.0249999999999968      46.929999999999993      48.734999999999992
   130   1      9.0249999999999968      48.734999999999992      46.929999999999993
   131   1       7.219999999999998      46.929999999999993      50.539999999999999
   132   1       7.219999999999998      48.734999999999992      52.344999999999992
   133   1      9.0249999999999968      46.929999999999993      52.344999999999992
   134   1      9.0249999999999968      48.734999999999992      50.539999999999999
   135   1       7.219999999999998      46.929999999999993      54.149999999999991
   136   1       7.219999999999998      48.734999999999992      55.954999999999998
   137   1      9.0249999999999968      46.929999999999993      55.954999999999998
   138   1      9.0249999999999968      48.734999999999992      54.149999999999991
   139   1       7.219999999999998      46.929999999999993      57.759999999999998
   140   1       7.219999999999998      48.734999999999992      59.564999999999991
   141   1      9.0249999999999968      46.929999999999993      59.564999999999991
   142   1      9.0249999999999968      48.734999999999992      57.759999999999998
   143   1       7.219999999999998      46.929999999999993      61.370000000000005
   144   1       7.219999999999998      48.734999999999992      63.175000000000004
   145   1      9.0249999999999968      46.929999999999993      63.175000000000004
   146   1      9.0249999999999968      48.734999999999992      61.370000000000005
   147   1      9.0249999999999968      48.734999999999992       64.97999999999999
   148   1      9.0249999999999968      50.539999999999999      34.295000000000002
   149   1       7.219999999999998      50.539999999999999      36.100000000000001
   150   1       7.219999999999998      52.344999999999992      37.904999999999994
   151   1      9.0249999999999968      50.539999999999999      37.904999999999994
   152   1      9.0249999999999968      52.344999999999992      36.100000000000001
   153   1       7.219999999999998      50.539999999999999      39.710000000000001
   154   1       7.219999999999998      52.344999999999992      41.515000000000001
   155   1      9.0249999999999968      50.539999999999999      41.515000000000001
   156   1      9.0249999999999968      52.344999999999992      39.710000000000001
   157   1       7.219999999999998      50.539999999999999      43.319999999999993
   158   1       7.219999999999998      52.344999999999992                  45.125
   159   1      9.0249999999999968      50.539999999999999                  45.125
   160   1      9.0249999999999968      52.344999999999992      43.319999999999993
   161   1       7.219999999999998      50.539999999999999      46.929999999999993
   162   1       7.219999999999998      52.344999999999992      48.734999999999992
   163   1      9.0249999999999968      50.539999999999999      48.734999999999992
   164   1      9.0249999999999968      52.344999999999992      46.929999999999993
   165   1       7.219999999999998      50.539999999999999      50.539999999999999
   166   1       7.219999999999998      52.344999999999992      52.344999999999992
   167   1      9.0249999999999968      50.539999999999999      52.344999999999992
   168   1      9.0249999999999968      52.344999999999992      50.539999999999999
   169   1       7.219999999999998      50.539999999999999      54.149999999999991
   170   1       7.219999999999998      52.344999999999992      55.954999999999998
   171   1      9.0249999999999968      50.539999999999999      55.954999999999998
   172   1      9.0249999999999968      52.344999999999992      54.149999999999991
   173   1       7.219999999999998      50.539999999999999      57.759999999999998
   174   1       7.219999999999998      52.344999999999992      59.564999999999991
   175   1      9.0249999999999968      50.539999999999999      59.564999999999991
   176   1      9.0249999999999968      52.344999999999992      57.759999999999998
   177   1       7.219999999999998      50.539999999999999      61.370000000000005
   178   1       7.219999999999998      52.344999999999992      63.175000000000004
   179   1      9.0249999999999968      50.539999999999999      63.175000000000004
   180   1      9.0249999999999968      52.344999999999992      61.370000000000005
   181   1       7.219999999999998      50.539999999999999       64.97999999999999
   182   1      9.0249999999999968      50.539999999999999      66.785000000000011
   183   1      9.0249999999999968      52.344999999999992       64.97999999999999
   184   1      9.0249999999999968      54.149999999999991      37.904999999999994
   185   1       7.219999999999998      54.149999999999991      39.710000000000001
   186   1       7.219999999999998      55.954999999999998      41.515000000000001
   187   1      9.0249999999999968      54.149999999999991      41.515000000000001
   188   1      9.0249999999999968      55.954999999999998      39.710000000000001
   189   1       7.219999999999998      54.149999999999991      43.319999999999993
   190   1       7.219999999999998      55.954999999999998                  45.125
   191   1      9.0249999999999968      54.149999999999991                  45.125
   192   1      9.0249999999999968      55.954999999999998      43.319999999999993
   193   1       7.219999999999998      54.149999999999991      46.929999999999993
   194   1       7.219999999999998      55.954999999999998      48.734999999999992
   195   1      9.0249999999999968      54.149999999999991      48.734999999999992
   196   1      9.0249999999999968      55.954999999999998      46.929999999999993
   197   1       7.219999999999998      54.149999999999991      50.539999999999999
   198   1       7.219999999999998      55.954999999999998      52.344999999999992
   199   1      9.0249999999999968      54.149999999999991      52.344999999999992
   200   1      9.0249999999999968      55.954999999999998      50.539999999999999
   201   1       7.219999999999998      54.149999999999991      54.149999999999991
   202   1       7.219999999999998      55.954999999999998      55.954999999999998
   203   1      9.0249999999999968      54.149999999999991      55.954999999999998
   204   1      9.0249999999999968      55.954999999999998      54.149999999999991
   205   1       7.219999999999998      54.149999999999991      57.759999999999998
   206   1       7.219999999999998      55.954999999999998      59.564999999999991
   207   1      9.0249999999999968      54.149999999999991      59.564999999999991
   208   1      9.0249999999999968      55.954999999999998      57.759999999999998
   209   1       7.219999999999998      54.149999999999991      61.370000000000005
   210   1      9.0249999999999968      54.149999999999991      63.175000000000004
   211   1      9.0249999999999968      55.954999999999998      61.370000000000005
   212   1      9.0249999999999968      57.759999999999998      41.515000000000001
   213   1       7.219999999999998      57.759999999999998      43.319999999999993
   214   1       7.219999999999998      59.564999999999991                  45.125
   215   1      9.0249999999999968      57.759999999999998                  45.125
   216   1      9.0249999999999968      59.564999999999991      43.319999999999993
   217   1       7.219999999999998      57.759999999999998      46.929999999999993
   218   1       7.219999999999998      59.564999999999991      48.734999999999992
   219   1      9.0249999999999968      57.759999999999998      48.734999999999992
   220   1      9.0249999999999968      59.564999999999991      46.929999999999993
   221   1       7.219999999999998      57.759999999999998      50.539999999999999
   222   1       7.219999999999998      59.564999999999991      52.344999999999992
   223   1      9.0249999999999968      57.759999999999998      52.344999999999992
   224   1      9.0249999999999968      59.564999999999991      50.539999999999999
   225   1       7.219999999999998      57.759999999999998      54.149999999999991
   226   1       7.219999999999998      59.564999999999991      55.954999999999998
   227   1      9.0249999999999968      57.759999999999998      55.954999999999998
   228   1      9.0249999999999968      59.564999999999991      54.149999999999991
   229   1       7.219999999999998      57.759999999999998      57.759999999999998
   230   1      9.0249999999999968      57.759999999999998      59.564999999999991
   231   1      9.0249999999999968      59.564999999999991      57.759999999999998
   232   1      9.0249999999999968      61.370000000000005                  45.125
   233   1       7.219999999999998      61.370000000000005      46.929999999999993
   234   1       7.219999999999998      63.175000000000004      48.734999999999992
   235   1      9.0249999999999968      61.370000000000005      48.734999999999992
   236   1      9.0249999999999968      63.175000000000004      46.929999999999993
   237   1       7.219999999999998      61.370000000000005      50.539999999999999
   238   1       7.219999999999998      63.175000000000004      52.344999999999992
   239   1      9.0249999999999968      61.370000000000005      52.344999999999992
   240   1      9.0249999999999968      63.175000000000004      50.539999999999999
   241   1       7.219999999999998      61.370000000000005      54.149999999999991
   242   1      9.0249999999999968      61.370000000000005      55.954999999999998
   243   1      9.0249999999999968      63.175000000000004      54.149999999999991
   244   1      9.0249999999999968       64.97999999999999      48.734999999999992
   245   1       7.219999999999998       64.97999999999999      50.539999999999999
   246   1      9.0249999999999968       64.97999999999999      52.344999999999992
   247   1      9.0249999999999968      66.785000000000011      50.539999999999999
   248   1      12.634999999999996      27.074999999999996      50.539999999999999
   249   1      10.829999999999998      30.685000000000002      48.734999999999992
   250   1      12.634999999999996      28.879999999999999      48.734999999999992
   251   1      12.634999999999996      30.685000000000002      46.929999999999993
   252   1      10.829999999999998      28.879999999999999      50.539999999999999
   253   1      10.829999999999998      30.685000000000002      52.344999999999992
   254   1      12.634999999999996      28.879999999999999      52.344999999999992
   255   1      12.634999999999996      30.685000000000002      50.539999999999999
   256   1      12.634999999999996      30.685000000000002      54.149999999999991
   257   1      10.829999999999998      34.295000000000002                  45.125
   258   1      12.634999999999996      32.489999999999995                  45.125
   259   1      12.634999999999996      34.295000000000002      43.319999999999993
   260   1      10.829999999999998      32.489999999999995      46.929999999999993
   261   1      10.829999999999998      34.295000000000002      48.734999999999992
   262   1      12.634999999999996      32.489999999999995      48.734999999999992
   263   1      12.634999999999996      34.295000000000002      46.929999999999993
   264   1      10.829999999999998      32.489999999999995      50.539999999999999
   265   1      10.829999999999998      34.295000000000002      52.344999999999992
   266   1      12.634999999999996      32.489999999999995      52.344999999999992
   267   1      12.634999999999996      34.295000000000002      50.539999999999999
   268   1      10.829999999999998      32.489999999999995      54.149999999999991
   269   1      10.829999999999998      34.295000000000002      55.954999999999998
   270   1      12.634999999999996      32.489999999999995      55.954999999999998
   271   1      12.634999999999996      34.295000000000002      54.149999999999991
   272   1      12.634999999999996      34.295000000000002      57.759999999999998
   273   1      10.829999999999998      37.904999999999994      41.515000000000001
   274   1      12.634999999999996      36.100000000000001      41.515000000000001
   275   1      12.634999999999996      37.904999999999994      39.710000000000001
   276   1      10.829999999999998      36.100000000000001      43.319999999999993
   277   1      10.829999999999998      37.904999999999994                  45.125
   278   1      12.634999999999996      36.100000000000001                  45.125
   279   1      12.634999999999996      37.904999999999994      43.319999999999993
   280   1      10.829999999999998      36.100000000000001      46.929999999999993
   281   1      10.829999999999998      37.904999999999994      48.734999999999992
   282   1      12.634999999999996      36.100000000000001      48.734999999999992
   283   1      12.634999999999996      37.904999999999994      46.929999999999993
   284   1      10.829999999999998      36.100000000000001      50.539999999999999
   285   1      10.829999999999998      37.904999999999994      52.344999999999992
   286   1      12.634999999999996      36.100000000000001      52.344999999999992
   287   1      12.634999999999996      37.904999999999994      50.539999999999999
   288   1      10.829999999999998      36.100000000000001      54.149999999999991
   289   1      10.829999999999998      37.904999999999994      55.954999999999998
   290   1      12.634999999999996      36.100000000000001      55.954999999999998
   291   1      12.634999999999996      37.904999999999994      54.149999999999991
   292   1      10.829999999999998      36.100000000000001      57.759999999999998
   293   1      10.829999999999998      37.904999999999994      59.564999999999991
   294   1      12.634999999999996      36.100000000000001      59.564999999999991
   295   1      12.634999999999996      37.904999999999994      57.759999999999998
   296   1      12.634999999999996      37.904999999999994      61.370000000000005
   297   1      10.829999999999998      41.515000000000001      37.904999999999994
   298   1      12.634999999999996      39.710000000000001      37.904999999999994
   299   1      12.634999999999996      41.515000000000001      36.100000000000001
   300   1      10.829999999999998      39.710000000000001      39.710000000000001
   301   1      10.829999999999998      41.515000000000001      41.515000000000001
   302   1      12.634999999999996      39.710000000000001      41.515000000000001
   303   1      12.634999999999996      41.515000000000001      39.710000000000001
   304   1      10.829999999999998      39.710000000000001      43.319999999999993
   305   1      10.829999999999998      41.515000000000001                  45.125
   306   1      12.634999999999996      39.710000000000001                  45.125
   307   1      12.634999999999996      41.515000000000001      43.319999999999993
   308   1      10.829999999999998      39.710000000000001      46.929999999999993
   309   1      10.829999999999998      41.515000000000001      48.734999999999992
   310   1      12.634999999999996      39.710000000000001      48.734999999999992
   311   1      12.634999999999996      41.515000000000001      46.929999999999993
   312   1      10.829999999999998      39.710000000000001      50.539999999999999
   313   1      10.829999999999998      41.515000000000001      52.344999999999992
   314   1      12.634999999999996      39.710000000000001      52.344999999999992
   315   1      12.634999999999996      41.515000000000001      50.539999999999999
   316   1      10.829999999999998      39.710000000000001      54.149999999999991
   317   1      10.829999999999998      41.515000000000001      55.954999999999998
   318   1      12.634999999999996      39.710000000000001      55.954999999999998
   319   1      12.634999999999996      41.515000000000001      54.149999999999991
   320   1      10.829999999999998      39.710000000000001      57.759999999999998
   321   1      10.829999999999998      41.515000000000001      59.564999999999991
   322   1      12.634999999999996      39.710000000000001      59.564999999999991
   323   1      12.634999999999996      41.515000000000001      57.759999999999998
   324   1      10.829999999999998      39.710000000000001      61.370000000000005
   325   1      10.829999999999998      41.515000000000001      63.175000000000004
   326   1      12.634999999999996      39.710000000000001      63.175000000000004
   327   1      12.634999999999996      41.515000000000001      61.370000000000005
   328   1      12.634999999999996      41.515000000000001       64.97999999999999
   329   1      10.829999999999998                  45.125      34.295000000000002
   330   1      12.634999999999996      43.319999999999993      34.295000000000002
   331   1      12.634999999999996                  45.125      32.489999999999995
   332   1      10.829999999999998      43.319999999999993      36.100000000000001
   333   1      10.829999999999998                  45.125      37.904999999999994
   334   1      12.634999999999996      43.319999999999993      37.904999999999994
   335   1      12.634999999999996                  45.125      36.100000000000001
   336   1      10.829999999999998      43.319999999999993      39.710000000000001
   337   1      10.829999999999998                  45.125      41.515000000000001
   338   1      12.634999999999996      43.319999999999993      41.515000000000001
   339   1      12.634999999999996                  45.125      39.710000000000001
   340   1      10.829999999999998      43.319999999999993      43.319999999999993
   341   1      10.829999999999998                  45.125                  45.125
   342   1      12.634999999999996      43.319999999999993                  45.125
   343   1      12.634999999999996                  45.125      43.319999999999993
   344   1      10.829999999999998      43.319999999999993      46.929999999999993
   345   1      10.829999999999998                  45.125      48.734999999999992
   346   1      12.634999999999996      43.319999999999993      48.734999999999992
   347   1      12.634999999999996                  45.125      46.929999999999993
   348   1      10.829999999999998      43.319999999999993      50.539999999999999
   349   1      10.829999999999998                  45.125      52.344999999999992
   350   1      12.634999999999996      43.319999999999993      52.344999999999992
   351   1      12.634999999999996                  45.125      50.539999999999999
   352   1      10.829999999999998      43.319999999999993      54.149999999999991
   353   1      10.829999999999998                  45.125      55.954999999999998
   354   1      12.634999999999996      43.319999999999993      55.954999999999998
   355   1      12.634999999999996                  45.125      54.149999999999991
   356   1      10.829999999999998      43.319999999999993      57.759999999999998
   357   1      10.829999999999998                  45.125      59.564999999999991
   358   1      12.634999999999996      43.319999999999993      59.564999999999991