model_files/PtAu/PtAu_30000/PtAu_211/PtAu_211_fcc_30069_temp.data (written by ASE) 

30069 	 atoms 
2  atom types
0.0                     115  xlo xhi
0.0                     115  ylo yhi
0.0                     115  zlo zhi


Atoms 

     1   1      2.0214999999999961      54.580500000000001      56.601999999999997
     2   1      2.0214999999999961      56.601999999999997      54.580500000000001
     3   1      114.99999999999999      56.601999999999997      56.601999999999997
     4   1      2.0214999999999961      56.601999999999997      58.623500000000007
     5   1      2.0214999999999961      58.623500000000007      56.601999999999997
     6   1      6.0644999999999962      46.494500000000002      56.601999999999997
     7   1      4.0429999999999922      50.537500000000001      54.580500000000001
     8   1      6.0644999999999962      48.515999999999998      54.580500000000001
     9   1      6.0644999999999962      50.537500000000001      52.558999999999997
    10   1      4.0429999999999922      48.515999999999998      56.601999999999997
    11   1      4.0429999999999922      50.537500000000001      58.623500000000007
    12   1      6.0644999999999962      48.515999999999998      58.623500000000007
    13   1      6.0644999999999962      50.537500000000001      56.601999999999997
    14   1      6.0644999999999962      50.537500000000001      60.644999999999996
    15   1      4.0429999999999922      54.580500000000001      50.537500000000001
    16   1      6.0644999999999962      52.558999999999997      50.537500000000001
    17   1      6.0644999999999962      54.580500000000001      48.515999999999998
    18   1      4.0429999999999922      52.558999999999997      52.558999999999997
    19   1      4.0429999999999922      54.580500000000001      54.580500000000001
    20   1      6.0644999999999962      52.558999999999997      54.580500000000001
    21   1      6.0644999999999962      54.580500000000001      52.558999999999997
    22   1      4.0429999999999922      52.558999999999997      56.601999999999997
    23   1      4.0429999999999922      54.580500000000001      58.623500000000007
    24   1      6.0644999999999962      52.558999999999997      58.623500000000007
    25   1      6.0644999999999962      54.580500000000001      56.601999999999997
    26   1      4.0429999999999922      52.558999999999997      60.644999999999996
    27   1      4.0429999999999922      54.580500000000001      62.666500000000006
    28   1      6.0644999999999962      52.558999999999997      62.666500000000006
    29   1      6.0644999999999962      54.580500000000001      60.644999999999996
    30   1      6.0644999999999962      54.580500000000001      64.688000000000002
    31   1      6.0644999999999962      56.601999999999997      46.494500000000002
    32   1      4.0429999999999922      56.601999999999997      48.515999999999998
    33   1      4.0429999999999922      58.623500000000007      50.537500000000001
    34   1      6.0644999999999962      56.601999999999997      50.537500000000001
    35   1      6.0644999999999962      58.623500000000007      48.515999999999998
    36   1      4.0429999999999922      56.601999999999997      52.558999999999997
    37   1      4.0429999999999922      58.623500000000007      54.580500000000001
    38   1      6.0644999999999962      56.601999999999997      54.580500000000001
    39   1      6.0644999999999962      58.623500000000007      52.558999999999997
    40   1      4.0429999999999922      56.601999999999997      56.601999999999997
    41   1      4.0429999999999922      58.623500000000007      58.623500000000007
    42   1      6.0644999999999962      56.601999999999997      58.623500000000007
    43   1      6.0644999999999962      58.623500000000007      56.601999999999997
    44   1      4.0429999999999922      56.601999999999997      60.644999999999996
    45   1      4.0429999999999922      58.623500000000007      62.666500000000006
    46   1      6.0644999999999962      56.601999999999997      62.666500000000006
    47   1      6.0644999999999962      58.623500000000007      60.644999999999996
    48   1      4.0429999999999922      56.601999999999997      64.688000000000002
    49   1      6.0644999999999962      56.601999999999997      66.709500000000006
    50   1      6.0644999999999962      58.623500000000007      64.688000000000002
    51   1      6.0644999999999962      60.644999999999996      50.537500000000001
    52   1      4.0429999999999922      60.644999999999996      52.558999999999997
    53   1      4.0429999999999922      62.666500000000006      54.580500000000001
    54   1      6.0644999999999962      60.644999999999996      54.580500000000001
    55   1      6.0644999999999962      62.666500000000006      52.558999999999997
    56   1      4.0429999999999922      60.644999999999996      56.601999999999997
    57   1      4.0429999999999922      62.666500000000006      58.623500000000007
    58   1      6.0644999999999962      60.644999999999996      58.623500000000007
    59   1      6.0644999999999962      62.666500000000006      56.601999999999997
    60   1      4.0429999999999922      60.644999999999996      60.644999999999996
    61   1      6.0644999999999962      60.644999999999996      62.666500000000006
    62   1      6.0644999999999962      62.666500000000006      60.644999999999996
    63   1      6.0644999999999962      64.688000000000002      54.580500000000001
    64   1      4.0429999999999922      64.688000000000002      56.601999999999997
    65   1      6.0644999999999962      64.688000000000002      58.623500000000007
    66   1      6.0644999999999962      66.709500000000006      56.601999999999997
    67   1      10.107499999999995      38.408499999999997      56.601999999999997
    68   1      8.0859999999999914      42.451499999999996      54.580500000000001
    69   1      10.107499999999995      40.429999999999993      54.580500000000001
    70   1      10.107499999999995      42.451499999999996      52.558999999999997
    71   1      8.0859999999999914      40.429999999999993      56.601999999999997
    72   1      8.0859999999999914      42.451499999999996      58.623500000000007
    73   1      10.107499999999995      40.429999999999993      58.623500000000007
    74   1      10.107499999999995      42.451499999999996      56.601999999999997
    75   1      10.107499999999995      42.451499999999996      60.644999999999996
    76   1      8.0859999999999914      46.494500000000002      50.537500000000001
    77   1      10.107499999999995      44.472999999999999      50.537500000000001
    78   1      10.107499999999995      46.494500000000002      48.515999999999998
    79   1      8.0859999999999914      44.472999999999999      52.558999999999997
    80   1      8.0859999999999914      46.494500000000002      54.580500000000001
    81   1      10.107499999999995      44.472999999999999      54.580500000000001
    82   1      10.107499999999995      46.494500000000002      52.558999999999997
    83   1      8.0859999999999914      44.472999999999999      56.601999999999997
    84   1      8.0859999999999914      46.494500000000002      58.623500000000007
    85   1      10.107499999999995      44.472999999999999      58.623500000000007
    86   1      10.107499999999995      46.494500000000002      56.601999999999997
    87   1      8.0859999999999914      44.472999999999999      60.644999999999996
    88   1      8.0859999999999914      46.494500000000002      62.666500000000006
    89   1      10.107499999999995      44.472999999999999      62.666500000000006
    90   1      10.107499999999995      46.494500000000002      60.644999999999996
    91   1      10.107499999999995      46.494500000000002      64.688000000000002
    92   1      8.0859999999999914      50.537500000000001      46.494500000000002
    93   1      10.107499999999995      48.515999999999998      46.494500000000002
    94   1      10.107499999999995      50.537500000000001      44.472999999999999
    95   1      8.0859999999999914      48.515999999999998      48.515999999999998
    96   1      8.0859999999999914      50.537500000000001      50.537500000000001
    97   1      10.107499999999995      48.515999999999998      50.537500000000001
    98   1      10.107499999999995      50.537500000000001      48.515999999999998
    99   1      8.0859999999999914      48.515999999999998      52.558999999999997
   100   1      8.0859999999999914      50.537500000000001      54.580500000000001
   101   1      10.107499999999995      48.515999999999998      54.580500000000001
   102   1      10.107499999999995      50.537500000000001      52.558999999999997
   103   1      8.0859999999999914      48.515999999999998      56.601999999999997
   104   1      8.0859999999999914      50.537500000000001      58.623500000000007
   105   1      10.107499999999995      48.515999999999998      58.623500000000007
   106   1      10.107499999999995      50.537500000000001      56.601999999999997
   107   1      8.0859999999999914      48.515999999999998      60.644999999999996
   108   1      8.0859999999999914      50.537500000000001      62.666500000000006
   109   1      10.107499999999995      48.515999999999998      62.666500000000006
   110   1      10.107499999999995      50.537500000000001      60.644999999999996
   111   1      8.0859999999999914      48.515999999999998      64.688000000000002
   112   1      8.0859999999999914      50.537500000000001      66.709500000000006
   113   1      10.107499999999995      48.515999999999998      66.709500000000006
   114   1      10.107499999999995      50.537500000000001      64.688000000000002
   115   1      10.107499999999995      50.537500000000001      68.730999999999995
   116   1      8.0859999999999914      54.580500000000001      42.451499999999996
   117   1      10.107499999999995      52.558999999999997      42.451499999999996
   118   1      10.107499999999995      54.580500000000001      40.429999999999993
   119   1      8.0859999999999914      52.558999999999997      44.472999999999999
   120   1      8.0859999999999914      54.580500000000001      46.494500000000002
   121   1      10.107499999999995      52.558999999999997      46.494500000000002
   122   1      10.107499999999995      54.580500000000001      44.472999999999999
   123   1      8.0859999999999914      52.558999999999997      48.515999999999998
   124   1      8.0859999999999914      54.580500000000001      50.537500000000001
   125   1      10.107499999999995      52.558999999999997      50.537500000000001
   126   1      10.107499999999995      54.580500000000001      48.515999999999998
   127   1      8.0859999999999914      52.558999999999997      52.558999999999997
   128   1      8.0859999999999914      54.580500000000001      54.580500000000001
   129   1      10.107499999999995      52.558999999999997      54.580500000000001
   130   1      10.107499999999995      54.580500000000001      52.558999999999997
   131   1      8.0859999999999914      52.558999999999997      56.601999999999997
   132   1      8.0859999999999914      54.580500000000001      58.623500000000007
   133   1      10.107499999999995      52.558999999999997      58.623500000000007
   134   1      10.107499999999995      54.580500000000001      56.601999999999997
   135   1      8.0859999999999914      52.558999999999997      60.644999999999996
   136   1      8.0859999999999914      54.580500000000001      62.666500000000006
   137   1      10.107499999999995      52.558999999999997      62.666500000000006
   138   1      10.107499999999995      54.580500000000001      60.644999999999996
   139   1      8.0859999999999914      52.558999999999997      64.688000000000002
   140   1      8.0859999999999914      54.580500000000001      66.709500000000006
   141   1      10.107499999999995      52.558999999999997      66.709500000000006
   142   1      10.107499999999995      54.580500000000001      64.688000000000002
   143   1      8.0859999999999914      52.558999999999997      68.730999999999995
   144   1      8.0859999999999914      54.580500000000001      70.752499999999998
   145   1      10.107499999999995      52.558999999999997      70.752499999999998
   146   1      10.107499999999995      54.580500000000001      68.730999999999995
   147   1      10.107499999999995      54.580500000000001      72.774000000000001
   148   1      10.107499999999995      56.601999999999997      38.408499999999997
   149   1      8.0859999999999914      56.601999999999997      40.429999999999993
   150   1      8.0859999999999914      58.623500000000007      42.451499999999996
   151   1      10.107499999999995      56.601999999999997      42.451499999999996
   152   1      10.107499999999995      58.623500000000007      40.429999999999993
   153   1      8.0859999999999914      56.601999999999997      44.472999999999999
   154   1      8.0859999999999914      58.623500000000007      46.494500000000002
   155   1      10.107499999999995      56.601999999999997      46.494500000000002
   156   1      10.107499999999995      58.623500000000007      44.472999999999999
   157   1      8.0859999999999914      56.601999999999997      48.515999999999998
   158   1      8.0859999999999914      58.623500000000007      50.537500000000001
   159   1      10.107499999999995      56.601999999999997      50.537500000000001
   160   1      10.107499999999995      58.623500000000007      48.515999999999998
   161   1      8.0859999999999914      56.601999999999997      52.558999999999997
   162   1      8.0859999999999914      58.623500000000007      54.580500000000001
   163   1      10.107499999999995      56.601999999999997      54.580500000000001
   164   1      10.107499999999995      58.623500000000007      52.558999999999997
   165   1      8.0859999999999914      56.601999999999997      56.601999999999997
   166   1      8.0859999999999914      58.623500000000007      58.623500000000007
   167   1      10.107499999999995      56.601999999999997      58.623500000000007
   168   1      10.107499999999995      58.623500000000007      56.601999999999997
   169   1      8.0859999999999914      56.601999999999997      60.644999999999996
   170   1      8.0859999999999914      58.623500000000007      62.666500000000006
   171   1      10.107499999999995      56.601999999999997      62.666500000000006
   172   1      10.107499999999995      58.623500000000007      60.644999999999996
   173   1      8.0859999999999914      56.601999999999997      64.688000000000002
   174   1      8.0859999999999914      58.623500000000007      66.709500000000006
   175   1      10.107499999999995      56.601999999999997      66.709500000000006
   176   1      10.107499999999995      58.623500000000007      64.688000000000002
   177   1      8.0859999999999914      56.601999999999997      68.730999999999995
   178   1      8.0859999999999914      58.623500000000007      70.752499999999998
   179   1      10.107499999999995      56.601999999999997      70.752499999999998
   180   1      10.107499999999995      58.623500000000007      68.730999999999995
   181   1      8.0859999999999914      56.601999999999997      72.774000000000001
   182   1      10.107499999999995      56.601999999999997      74.795500000000004
   183   1      10.107499999999995      58.623500000000007      72.774000000000001
   184   1      10.107499999999995      60.644999999999996      42.451499999999996
   185   1      8.0859999999999914      60.644999999999996      44.472999999999999
   186   1      8.0859999999999914      62.666500000000006      46.494500000000002
   187   1      10.107499999999995      60.644999999999996      46.494500000000002
   188   1      10.107499999999995      62.666500000000006      44.472999999999999
   189   1      8.0859999999999914      60.644999999999996      48.515999999999998
   190   1      8.0859999999999914      62.666500000000006      50.537500000000001
   191   1      10.107499999999995      60.644999999999996      50.537500000000001
   192   1      10.107499999999995      62.666500000000006      48.515999999999998
   193   1      8.0859999999999914      60.644999999999996      52.558999999999997
   194   1      8.0859999999999914      62.666500000000006      54.580500000000001
   195   1      10.107499999999995      60.644999999999996      54.580500000000001
   196   1      10.107499999999995      62.666500000000006      52.558999999999997
   197   1      8.0859999999999914      60.644999999999996      56.601999999999997
   198   1      8.0859999999999914      62.666500000000006      58.623500000000007
   199   1      10.107499999999995      60.644999999999996      58.623500000000007
   200   1      10.107499999999995      62.666500000000006      56.601999999999997
   201   1      8.0859999999999914      60.644999999999996      60.644999999999996
   202   1      8.0859999999999914      62.666500000000006      62.666500000000006
   203   1      10.107499999999995      60.644999999999996      62.666500000000006
   204   1      10.107499999999995      62.666500000000006      60.644999999999996
   205   1      8.0859999999999914      60.644999999999996      64.688000000000002
   206   1      8.0859999999999914      62.666500000000006      66.709500000000006
   207   1      10.107499999999995      60.644999999999996      66.709500000000006
   208   1      10.107499999999995      62.666500000000006      64.688000000000002
   209   1      8.0859999999999914      60.644999999999996      68.730999999999995
   210   1      10.107499999999995      60.644999999999996      70.752499999999998
   211   1      10.107499999999995      62.666500000000006      68.730999999999995
   212   1      10.107499999999995      64.688000000000002      46.494500000000002
   213   1      8.0859999999999914      64.688000000000002      48.515999999999998
   214   1      8.0859999999999914      66.709500000000006      50.537500000000001
   215   1      10.107499999999995      64.688000000000002      50.537500000000001
   216   1      10.107499999999995      66.709500000000006      48.515999999999998
   217   1      8.0859999999999914      64.688000000000002      52.558999999999997
   218   1      8.0859999999999914      66.709500000000006      54.580500000000001
   219   1      10.107499999999995      64.688000000000002      54.580500000000001
   220   1      10.107499999999995      66.709500000000006      52.558999999999997
   221   1      8.0859999999999914      64.688000000000002      56.601999999999997
   222   1      8.0859999999999914      66.709500000000006      58.623500000000007
   223   1      10.107499999999995      64.688000000000002      58.623500000000007
   224   1      10.107499999999995      66.709500000000006      56.601999999999997
   225   1      8.0859999999999914      64.688000000000002      60.644999999999996
   226   1      8.0859999999999914      66.709500000000006      62.666500000000006
   227   1      10.107499999999995      64.688000000000002      62.666500000000006
   228   1      10.107499999999995      66.709500000000006      60.644999999999996
   229   1      8.0859999999999914      64.688000000000002      64.688000000000002
   230   1      10.107499999999995      64.688000000000002      66.709500000000006
   231   1      10.107499999999995      66.709500000000006      64.688000000000002
   232   1      10.107499999999995      68.730999999999995      50.537500000000001
   233   1      8.0859999999999914      68.730999999999995      52.558999999999997
   234   1      8.0859999999999914      70.752499999999998      54.580500000000001
   235   1      10.107499999999995      68.730999999999995      54.580500000000001
   236   1      10.107499999999995      70.752499999999998      52.558999999999997
   237   1      8.0859999999999914      68.730999999999995      56.601999999999997
   238   1      8.0859999999999914      70.752499999999998      58.623500000000007
   239   1      10.107499999999995      68.730999999999995      58.623500000000007
   240   1      10.107499999999995      70.752499999999998      56.601999999999997
   241   1      8.0859999999999914      68.730999999999995      60.644999999999996
   242   1      10.107499999999995      68.730999999999995      62.666500000000006
   243   1      10.107499999999995      70.752499999999998      60.644999999999996
   244   1      10.107499999999995      72.774000000000001      54.580500000000001
   245   1      8.0859999999999914      72.774000000000001      56.601999999999997
   246   1      10.107499999999995      72.774000000000001      58.623500000000007
   247   1      10.107499999999995      74.795500000000004      56.601999999999997
   248   1      14.150499999999994      30.322499999999998      56.601999999999997
   249   1      12.128999999999998      34.365499999999997      54.580500000000001
   250   1      14.150499999999994      32.343999999999994      54.580500000000001
   251   1      14.150499999999994      34.365499999999997      52.558999999999997
   252   1      12.128999999999998      32.343999999999994      56.601999999999997
   253   1      12.128999999999998      34.365499999999997      58.623500000000007
   254   1      14.150499999999994      32.343999999999994      58.623500000000007
   255   1      14.150499999999994      34.365499999999997      56.601999999999997
   256   1      14.150499999999994      34.365499999999997      60.644999999999996
   257   1      12.128999999999998      38.408499999999997      50.537500000000001
   258   1      14.150499999999994      36.386999999999993      50.537500000000001
   259   1      14.150499999999994      38.408499999999997      48.515999999999998
   260   1      12.128999999999998      36.386999999999993      52.558999999999997
   261   1      12.128999999999998      38.408499999999997      54.580500000000001
   262   1      14.150499999999994      36.386999999999993      54.580500000000001
   263   1      14.150499999999994      38.408499999999997      52.558999999999997
   264   1      12.128999999999998      36.386999999999993      56.601999999999997
   265   1      12.128999999999998      38.408499999999997      58.623500000000007
   266   1      14.150499999999994      36.386999999999993      58.623500000000007
   267   1      14.150499999999994      38.408499999999997      56.601999999999997
   268   1      12.128999999999998      36.386999999999993      60.644999999999996
   269   1      12.128999999999998      38.408499999999997      62.666500000000006
   270   1      14.150499999999994      36.386999999999993      62.666500000000006
   271   1      14.150499999999994      38.408499999999997      60.644999999999996
   272   1      14.150499999999994      38.408499999999997      64.688000000000002
   273   1      12.128999999999998      42.451499999999996      46.494500000000002
   274   1      14.150499999999994      40.429999999999993      46.494500000000002
   275   1      14.150499999999994      42.451499999999996      44.472999999999999
   276   1      12.128999999999998      40.429999999999993      48.515999999999998
   277   1      12.128999999999998      42.451499999999996      50.537500000000001
   278   1      14.150499999999994      40.429999999999993      50.537500000000001
   279   1      14.150499999999994      42.451499999999996      48.515999999999998
   280   1      12.128999999999998      40.429999999999993      52.558999999999997
   281   1      12.128999999999998      42.451499999999996      54.580500000000001
   282   1      14.150499999999994      40.429999999999993      54.580500000000001
   283   1      14.150499999999994      42.451499999999996      52.558999999999997
   284   1      12.128999999999998      40.429999999999993      56.601999999999997
   285   1      12.128999999999998      42.451499999999996      58.623500000000007
   286   1      14.150499999999994      40.429999999999993      58.623500000000007
   287   1      14.150499999999994      42.451499999999996      56.601999999999997
   288   1      12.128999999999998      40.429999999999993      60.644999999999996
   289   1      12.128999999999998      42.451499999999996      62.666500000000006
   290   1      14.150499999999994      40.429999999999993      62.666500000000006
   291   1      14.150499999999994      42.451499999999996      60.644999999999996
   292   1      12.128999999999998      40.429999999999993      64.688000000000002
   293   1      12.128999999999998      42.451499999999996      66.709500000000006
   294   1      14.150499999999994      40.429999999999993      66.709500000000006
   295   1      14.150499999999994      42.451499999999996      64.688000000000002
   296   1      14.150499999999994      42.451499999999996      68.730999999999995
   297   1      12.128999999999998      46.494500000000002      42.451499999999996
   298   1      14.150499999999994      44.472999999999999      42.451499999999996
   299   1      14.150499999999994      46.494500000000002      40.429999999999993
   300   1      12.128999999999998      44.472999999999999      44.472999999999999
   301   1      12.128999999999998      46.494500000000002      46.494500000000002
   302   1      14.150499999999994      44.472999999999999      46.494500000000002
   303   1      14.150499999999994      46.494500000000002      44.472999999999999
   304   1      12.128999999999998      44.472999999999999      48.515999999999998
   305   1      12.128999999999998      46.494500000000002      50.537500000000001
   306   1      14.150499999999994      44.472999999999999      50.537500000000001
   307   1      14.150499999999994      46.494500000000002      48.515999999999998
   308   1      12.128999999999998      44.472999999999999      52.558999999999997
   309   1      12.128999999999998      46.494500000000002      54.580500000000001
   310   1      14.150499999999994      44.472999999999999      54.580500000000001
   311   1      14.150499999999994      46.494500000000002      52.558999999999997
   312   1      12.128999999999998      44.472999999999999      56.601999999999997
   313   1      12.128999999999998      46.494500000000002      58.623500000000007
   314   1      14.150499999999994      44.472999999999999      58.623500000000007
   315   1      14.150499999999994      46.494500000000002      56.601999999999997
   316   1      12.128999999999998      44.472999999999999      60.644999999999996
   317   1      12.128999999999998      46.494500000000002      62.666500000000006
   318   1      14.150499999999994      44.472999999999999      62.666500000000006
   319   1      14.150499999999994      46.494500000000002      60.644999999999996
   320   1      12.128999999999998      44.472999999999999      64.688000000000002
   321   1      12.128999999999998      46.494500000000002      66.709500000000006
   322   1      14.150499999999994      44.472999999999999      66.709500000000006
   323   1      14.150499999999994      46.494500000000002      64.688000000000002
   324   1      12.128999999999998      44.472999999999999      68.730999999999995
   325   1      12.128999999999998      46.494500000000002      70.752499999999998
   326   1      14.150499999999994      44.472999999999999      70.752499999999998
   327   1      14.150499999999994      46.494500000000002      68.730999999999995
   328   1      14.150499999999994      46.494500000000002      72.774000000000001
   329   1      12.128999999999998      50.537500000000001      38.408499999999997
   330   1      14.150499999999994      48.515999999999998      38.408499999999997
   331   1      14.150499999999994      50.537500000000001      36.386999999999993
   332   1      12.128999999999998      48.515999999999998      40.429999999999993
   333   1      12.128999999999998      50.537500000000001      42.451499999999996
   334   1      14.150499999999994      48.515999999999998      42.451499999999996
   335   1      14.150499999999994      50.537500000000001      40.429999999999993
   336   1      12.128999999999998      48.515999999999998      44.472999999999999
   337   1      12.128999999999998      50.537500000000001      46.494500000000002
   338   1      14.150499999999994      48.515999999999998      46.494500000000002
   339   1      14.150499999999994      50.537500000000001      44.472999999999999
   340   1      12.128999999999998      48.515999999999998      48.515999999999998
   341   1      12.128999999999998      50.537500000000001      50.537500000000001
   342   1      14.150499999999994      48.515999999999998      50.537500000000001
   343   1      14.150499999999994      50.537500000000001      48.515999999999998
   344   1      12.128999999999998      48.515999999999998      52.558999999999997
   345   1      12.128999999999998      50.537500000000001      54.580500000000001
   346   1      14.150499999999994      48.515999999999998      54.580500000000001
   347   1      14.150499999999994      50.537500000000001      52.558999999999997
   348   1      12.128999999999998      48.515999999999998      56.601999999999997
   349   1      12.128999999999998      50.537500000000001      58.623500000000007
   350   1      14.150499999999994      48.515999999999998      58.623500000000007
   351   1      14.150499999999994      50.537500000000001      56.601999999999997
   352   1      12.128999999999998      48.515999999999998      60.644999999999996
   353   1      12.128999999999998      50.537500000000001      62.666500000000006
   354   1      14.150499999999994      48.515999999999998      62.666500000000006
   355   1      14.150499999999994      50.537500000000001      60.644999999999996
   356   1      12.128999999999998      48.515999999999998      64.688000000000002
   357   1      12.128999999999998      50.537500000000001      66.709500000000006
   358   1      14.150499999999994      48.515999999999998      66.709500000000006