model_files/PdNi/PdNi_30000/PdNi_411/PdNi_411_fcc_29957_temp.data (written by ASE) 

29957 	 atoms 
2  atom types
0.0                      91  xlo xhi
0.0                      91  ylo yhi
0.0                      91  zlo zhi


Atoms 

     1   1      1.8624999999999903       39.11249999999999      44.699999999999996
     2   1      1.8624999999999903      40.974999999999994      42.837499999999991
     3   1      1.8624999999999903      42.837499999999991      40.974999999999994
     4   1      1.8624999999999903      40.974999999999994      46.562499999999993
     5   1      1.8624999999999903      42.837499999999991      44.699999999999996
     6   1      1.8624999999999903      42.837499999999991       48.42499999999999
     7   1      1.8624999999999903      44.699999999999996       39.11249999999999
     8   1      1.8624999999999903      44.699999999999996      42.837499999999991
     9   1      1.8624999999999903      46.562499999999993      40.974999999999994
    10   1      90.999999999999986      44.699999999999996      44.699999999999996
    11   1      1.8624999999999903      44.699999999999996      46.562499999999993
    12   1      1.8624999999999903      46.562499999999993      44.699999999999996
    13   1      1.8624999999999903      44.699999999999996      50.287499999999994
    14   1      1.8624999999999903      46.562499999999993       48.42499999999999
    15   1      1.8624999999999903       48.42499999999999      42.837499999999991
    16   1      1.8624999999999903       48.42499999999999      46.562499999999993
    17   1      1.8624999999999903      50.287499999999994      44.699999999999996
    18   1      5.5874999999999924      24.212499999999995      44.699999999999996
    19   1      5.5874999999999924      26.074999999999992      42.837499999999991
    20   1      5.5874999999999924      27.937499999999996      40.974999999999994
    21   1      5.5874999999999924      26.074999999999992      46.562499999999993
    22   1      5.5874999999999924      27.937499999999996      44.699999999999996
    23   1      5.5874999999999924      27.937499999999996       48.42499999999999
    24   1      5.5874999999999924       29.79999999999999       39.11249999999999
    25   1      5.5874999999999924      31.662499999999987      37.249999999999993
    26   1      3.7249999999999943      31.662499999999987      42.837499999999991
    27   1      5.5874999999999924       29.79999999999999      42.837499999999991
    28   1      5.5874999999999924      31.662499999999987      40.974999999999994
    29   1      3.7249999999999943       29.79999999999999      44.699999999999996
    30   1      3.7249999999999943      31.662499999999987      46.562499999999993
    31   1      5.5874999999999924       29.79999999999999      46.562499999999993
    32   1      5.5874999999999924      31.662499999999987      44.699999999999996
    33   1      5.5874999999999924       29.79999999999999      50.287499999999994
    34   1      5.5874999999999924      31.662499999999987       48.42499999999999
    35   1      5.5874999999999924      31.662499999999987      52.149999999999999
    36   1      5.5874999999999924      33.524999999999991      35.387499999999989
    37   1      5.5874999999999924      35.387499999999989      33.524999999999991
    38   1      3.7249999999999943      35.387499999999989       39.11249999999999
    39   1      5.5874999999999924      33.524999999999991       39.11249999999999
    40   1      5.5874999999999924      35.387499999999989      37.249999999999993
    41   1      3.7249999999999943      33.524999999999991      40.974999999999994
    42   1      3.7249999999999943      35.387499999999989      42.837499999999991
    43   1      5.5874999999999924      33.524999999999991      42.837499999999991
    44   1      5.5874999999999924      35.387499999999989      40.974999999999994
    45   1      3.7249999999999943      33.524999999999991      44.699999999999996
    46   1      3.7249999999999943      35.387499999999989      46.562499999999993
    47   1      5.5874999999999924      33.524999999999991      46.562499999999993
    48   1      5.5874999999999924      35.387499999999989      44.699999999999996
    49   1      3.7249999999999943      33.524999999999991       48.42499999999999
    50   1      3.7249999999999943      35.387499999999989      50.287499999999994
    51   1      5.5874999999999924      33.524999999999991      50.287499999999994
    52   1      5.5874999999999924      35.387499999999989       48.42499999999999
    53   1      5.5874999999999924      33.524999999999991      54.012499999999989
    54   1      5.5874999999999924      35.387499999999989      52.149999999999999
    55   1      5.5874999999999924      35.387499999999989      55.874999999999993
    56   1      5.5874999999999924      37.249999999999993      31.662499999999987
    57   1      5.5874999999999924       39.11249999999999       29.79999999999999
    58   1      3.7249999999999943       39.11249999999999      35.387499999999989
    59   1      5.5874999999999924      37.249999999999993      35.387499999999989
    60   1      5.5874999999999924       39.11249999999999      33.524999999999991
    61   1      3.7249999999999943      37.249999999999993      37.249999999999993
    62   1      3.7249999999999943       39.11249999999999       39.11249999999999
    63   1      5.5874999999999924      37.249999999999993       39.11249999999999
    64   1      5.5874999999999924       39.11249999999999      37.249999999999993
    65   1      3.7249999999999943      37.249999999999993      40.974999999999994
    66   1      3.7249999999999943       39.11249999999999      42.837499999999991
    67   1      5.5874999999999924      37.249999999999993      42.837499999999991
    68   1      5.5874999999999924       39.11249999999999      40.974999999999994
    69   1      3.7249999999999943      37.249999999999993      44.699999999999996
    70   1      3.7249999999999943       39.11249999999999      46.562499999999993
    71   1      5.5874999999999924      37.249999999999993      46.562499999999993
    72   1      5.5874999999999924       39.11249999999999      44.699999999999996
    73   1      3.7249999999999943      37.249999999999993       48.42499999999999
    74   1      3.7249999999999943       39.11249999999999      50.287499999999994
    75   1      5.5874999999999924      37.249999999999993      50.287499999999994
    76   1      5.5874999999999924       39.11249999999999       48.42499999999999
    77   1      3.7249999999999943      37.249999999999993      52.149999999999999
    78   1      3.7249999999999943       39.11249999999999      54.012499999999989
    79   1      5.5874999999999924      37.249999999999993      54.012499999999989
    80   1      5.5874999999999924       39.11249999999999      52.149999999999999
    81   1      5.5874999999999924      37.249999999999993      57.737499999999997
    82   1      5.5874999999999924       39.11249999999999      55.874999999999993
    83   1      5.5874999999999924       39.11249999999999      59.600000000000001
    84   1      5.5874999999999924      40.974999999999994      27.937499999999996
    85   1      5.5874999999999924      42.837499999999991      26.074999999999992
    86   1      3.7249999999999943      42.837499999999991      31.662499999999987
    87   1      5.5874999999999924      40.974999999999994      31.662499999999987
    88   1      5.5874999999999924      42.837499999999991       29.79999999999999
    89   1      3.7249999999999943      40.974999999999994      33.524999999999991
    90   1      3.7249999999999943      42.837499999999991      35.387499999999989
    91   1      5.5874999999999924      40.974999999999994      35.387499999999989
    92   1      5.5874999999999924      42.837499999999991      33.524999999999991
    93   1      3.7249999999999943      40.974999999999994      37.249999999999993
    94   1      3.7249999999999943      42.837499999999991       39.11249999999999
    95   1      5.5874999999999924      40.974999999999994       39.11249999999999
    96   1      5.5874999999999924      42.837499999999991      37.249999999999993
    97   1      3.7249999999999943      40.974999999999994      40.974999999999994
    98   1      3.7249999999999943      42.837499999999991      42.837499999999991
    99   1      5.5874999999999924      40.974999999999994      42.837499999999991
   100   1      5.5874999999999924      42.837499999999991      40.974999999999994
   101   1      3.7249999999999943      40.974999999999994      44.699999999999996
   102   1      3.7249999999999943      42.837499999999991      46.562499999999993
   103   1      5.5874999999999924      40.974999999999994      46.562499999999993
   104   1      5.5874999999999924      42.837499999999991      44.699999999999996
   105   1      3.7249999999999943      40.974999999999994       48.42499999999999
   106   1      3.7249999999999943      42.837499999999991      50.287499999999994
   107   1      5.5874999999999924      40.974999999999994      50.287499999999994
   108   1      5.5874999999999924      42.837499999999991       48.42499999999999
   109   1      3.7249999999999943      40.974999999999994      52.149999999999999
   110   1      3.7249999999999943      42.837499999999991      54.012499999999989
   111   1      5.5874999999999924      40.974999999999994      54.012499999999989
   112   1      5.5874999999999924      42.837499999999991      52.149999999999999
   113   1      3.7249999999999943      40.974999999999994      55.874999999999993
   114   1      3.7249999999999943      42.837499999999991      57.737499999999997
   115   1      5.5874999999999924      40.974999999999994      57.737499999999997
   116   1      5.5874999999999924      42.837499999999991      55.874999999999993
   117   1      5.5874999999999924      40.974999999999994      61.462499999999991
   118   1      5.5874999999999924      42.837499999999991      59.600000000000001
   119   1      5.5874999999999924      42.837499999999991      63.324999999999996
   120   1      5.5874999999999924      44.699999999999996      24.212499999999995
   121   1      5.5874999999999924      44.699999999999996      27.937499999999996
   122   1      5.5874999999999924      46.562499999999993      26.074999999999992
   123   1      3.7249999999999943      44.699999999999996       29.79999999999999
   124   1      3.7249999999999943      46.562499999999993      31.662499999999987
   125   1      5.5874999999999924      44.699999999999996      31.662499999999987
   126   1      5.5874999999999924      46.562499999999993       29.79999999999999
   127   1      3.7249999999999943      44.699999999999996      33.524999999999991
   128   1      3.7249999999999943      46.562499999999993      35.387499999999989
   129   1      5.5874999999999924      44.699999999999996      35.387499999999989
   130   1      5.5874999999999924      46.562499999999993      33.524999999999991
   131   1      3.7249999999999943      44.699999999999996      37.249999999999993
   132   1      3.7249999999999943      46.562499999999993       39.11249999999999
   133   1      5.5874999999999924      44.699999999999996       39.11249999999999
   134   1      5.5874999999999924      46.562499999999993      37.249999999999993
   135   1      3.7249999999999943      44.699999999999996      40.974999999999994
   136   1      3.7249999999999943      46.562499999999993      42.837499999999991
   137   1      5.5874999999999924      44.699999999999996      42.837499999999991
   138   1      5.5874999999999924      46.562499999999993      40.974999999999994
   139   1      3.7249999999999943      44.699999999999996      44.699999999999996
   140   1      3.7249999999999943      46.562499999999993      46.562499999999993
   141   1      5.5874999999999924      44.699999999999996      46.562499999999993
   142   1      5.5874999999999924      46.562499999999993      44.699999999999996
   143   1      3.7249999999999943      44.699999999999996       48.42499999999999
   144   1      3.7249999999999943      46.562499999999993      50.287499999999994
   145   1      5.5874999999999924      44.699999999999996      50.287499999999994
   146   1      5.5874999999999924      46.562499999999993       48.42499999999999
   147   1      3.7249999999999943      44.699999999999996      52.149999999999999
   148   1      3.7249999999999943      46.562499999999993      54.012499999999989
   149   1      5.5874999999999924      44.699999999999996      54.012499999999989
   150   1      5.5874999999999924      46.562499999999993      52.149999999999999
   151   1      3.7249999999999943      44.699999999999996      55.874999999999993
   152   1      3.7249999999999943      46.562499999999993      57.737499999999997
   153   1      5.5874999999999924      44.699999999999996      57.737499999999997
   154   1      5.5874999999999924      46.562499999999993      55.874999999999993
   155   1      3.7249999999999943      44.699999999999996      59.600000000000001
   156   1      5.5874999999999924      44.699999999999996      61.462499999999991
   157   1      5.5874999999999924      46.562499999999993      59.600000000000001
   158   1      5.5874999999999924      44.699999999999996      65.187499999999986
   159   1      5.5874999999999924      46.562499999999993      63.324999999999996
   160   1      5.5874999999999924       48.42499999999999      27.937499999999996
   161   1      5.5874999999999924       48.42499999999999      31.662499999999987
   162   1      5.5874999999999924      50.287499999999994       29.79999999999999
   163   1      3.7249999999999943       48.42499999999999      33.524999999999991
   164   1      3.7249999999999943      50.287499999999994      35.387499999999989
   165   1      5.5874999999999924       48.42499999999999      35.387499999999989
   166   1      5.5874999999999924      50.287499999999994      33.524999999999991
   167   1      3.7249999999999943       48.42499999999999      37.249999999999993
   168   1      3.7249999999999943      50.287499999999994       39.11249999999999
   169   1      5.5874999999999924       48.42499999999999       39.11249999999999
   170   1      5.5874999999999924      50.287499999999994      37.249999999999993
   171   1      3.7249999999999943       48.42499999999999      40.974999999999994
   172   1      3.7249999999999943      50.287499999999994      42.837499999999991
   173   1      5.5874999999999924       48.42499999999999      42.837499999999991
   174   1      5.5874999999999924      50.287499999999994      40.974999999999994
   175   1      3.7249999999999943       48.42499999999999      44.699999999999996
   176   1      3.7249999999999943      50.287499999999994      46.562499999999993
   177   1      5.5874999999999924       48.42499999999999      46.562499999999993
   178   1      5.5874999999999924      50.287499999999994      44.699999999999996
   179   1      3.7249999999999943       48.42499999999999       48.42499999999999
   180   1      3.7249999999999943      50.287499999999994      50.287499999999994
   181   1      5.5874999999999924       48.42499999999999      50.287499999999994
   182   1      5.5874999999999924      50.287499999999994       48.42499999999999
   183   1      3.7249999999999943       48.42499999999999      52.149999999999999
   184   1      3.7249999999999943      50.287499999999994      54.012499999999989
   185   1      5.5874999999999924       48.42499999999999      54.012499999999989
   186   1      5.5874999999999924      50.287499999999994      52.149999999999999
   187   1      3.7249999999999943       48.42499999999999      55.874999999999993
   188   1      5.5874999999999924       48.42499999999999      57.737499999999997
   189   1      5.5874999999999924      50.287499999999994      55.874999999999993
   190   1      5.5874999999999924       48.42499999999999      61.462499999999991
   191   1      5.5874999999999924      50.287499999999994      59.600000000000001
   192   1      5.5874999999999924      52.149999999999999      31.662499999999987
   193   1      5.5874999999999924      52.149999999999999      35.387499999999989
   194   1      5.5874999999999924      54.012499999999989      33.524999999999991
   195   1      3.7249999999999943      52.149999999999999      37.249999999999993
   196   1      3.7249999999999943      54.012499999999989       39.11249999999999
   197   1      5.5874999999999924      52.149999999999999       39.11249999999999
   198   1      5.5874999999999924      54.012499999999989      37.249999999999993
   199   1      3.7249999999999943      52.149999999999999      40.974999999999994
   200   1      3.7249999999999943      54.012499999999989      42.837499999999991
   201   1      5.5874999999999924      52.149999999999999      42.837499999999991
   202   1      5.5874999999999924      54.012499999999989      40.974999999999994
   203   1      3.7249999999999943      52.149999999999999      44.699999999999996
   204   1      3.7249999999999943      54.012499999999989      46.562499999999993
   205   1      5.5874999999999924      52.149999999999999      46.562499999999993
   206   1      5.5874999999999924      54.012499999999989      44.699999999999996
   207   1      3.7249999999999943      52.149999999999999       48.42499999999999
   208   1      3.7249999999999943      54.012499999999989      50.287499999999994
   209   1      5.5874999999999924      52.149999999999999      50.287499999999994
   210   1      5.5874999999999924      54.012499999999989       48.42499999999999
   211   1      3.7249999999999943      52.149999999999999      52.149999999999999
   212   1      5.5874999999999924      52.149999999999999      54.012499999999989
   213   1      5.5874999999999924      54.012499999999989      52.149999999999999
   214   1      5.5874999999999924      52.149999999999999      57.737499999999997
   215   1      5.5874999999999924      54.012499999999989      55.874999999999993
   216   1      5.5874999999999924      55.874999999999993      35.387499999999989
   217   1      5.5874999999999924      55.874999999999993       39.11249999999999
   218   1      5.5874999999999924      57.737499999999997      37.249999999999993
   219   1      3.7249999999999943      55.874999999999993      40.974999999999994
   220   1      3.7249999999999943      57.737499999999997      42.837499999999991
   221   1      5.5874999999999924      55.874999999999993      42.837499999999991
   222   1      5.5874999999999924      57.737499999999997      40.974999999999994
   223   1      3.7249999999999943      55.874999999999993      44.699999999999996
   224   1      3.7249999999999943      57.737499999999997      46.562499999999993
   225   1      5.5874999999999924      55.874999999999993      46.562499999999993
   226   1      5.5874999999999924      57.737499999999997      44.699999999999996
   227   1      3.7249999999999943      55.874999999999993       48.42499999999999
   228   1      5.5874999999999924      55.874999999999993      50.287499999999994
   229   1      5.5874999999999924      57.737499999999997       48.42499999999999
   230   1      5.5874999999999924      55.874999999999993      54.012499999999989
   231   1      5.5874999999999924      57.737499999999997      52.149999999999999
   232   1      5.5874999999999924      59.600000000000001       39.11249999999999
   233   1      5.5874999999999924      59.600000000000001      42.837499999999991
   234   1      5.5874999999999924      61.462499999999991      40.974999999999994
   235   1      3.7249999999999943      59.600000000000001      44.699999999999996
   236   1      5.5874999999999924      59.600000000000001      46.562499999999993
   237   1      5.5874999999999924      61.462499999999991      44.699999999999996
   238   1      5.5874999999999924      59.600000000000001      50.287499999999994
   239   1      5.5874999999999924      61.462499999999991       48.42499999999999
   240   1      5.5874999999999924      63.324999999999996      42.837499999999991
   241   1      5.5874999999999924      63.324999999999996      46.562499999999993
   242   1      5.5874999999999924      65.187499999999986      44.699999999999996
   243   1      9.3124999999999929      9.3124999999999929      44.699999999999996
   244   1      9.3124999999999929       11.17499999999999      42.837499999999991
   245   1      9.3124999999999929      13.037499999999991      40.974999999999994
   246   1      9.3124999999999929       11.17499999999999      46.562499999999993
   247   1      9.3124999999999929      13.037499999999991      44.699999999999996
   248   1      9.3124999999999929      13.037499999999991       48.42499999999999
   249   1      9.3124999999999929      14.899999999999993       39.11249999999999
   250   1      9.3124999999999929      16.762499999999992      37.249999999999993
   251   1      7.4499999999999966      16.762499999999992      42.837499999999991
   252   1      9.3124999999999929      14.899999999999993      42.837499999999991
   253   1      9.3124999999999929      16.762499999999992      40.974999999999994
   254   1      7.4499999999999966      14.899999999999993      44.699999999999996
   255   1      7.4499999999999966      16.762499999999992      46.562499999999993
   256   1      9.3124999999999929      14.899999999999993      46.562499999999993
   257   1      9.3124999999999929      16.762499999999992      44.699999999999996
   258   1      9.3124999999999929      14.899999999999993      50.287499999999994
   259   1      9.3124999999999929      16.762499999999992       48.42499999999999
   260   1      9.3124999999999929      16.762499999999992      52.149999999999999
   261   1      9.3124999999999929      18.624999999999993      35.387499999999989
   262   1      9.3124999999999929      20.487499999999997      33.524999999999991
   263   1      7.4499999999999966      20.487499999999997       39.11249999999999
   264   1      9.3124999999999929      18.624999999999993       39.11249999999999
   265   1      9.3124999999999929      20.487499999999997      37.249999999999993
   266   1      7.4499999999999966      18.624999999999993      40.974999999999994
   267   1      7.4499999999999966      20.487499999999997      42.837499999999991
   268   1      9.3124999999999929      18.624999999999993      42.837499999999991
   269   1      9.3124999999999929      20.487499999999997      40.974999999999994
   270   1      7.4499999999999966      18.624999999999993      44.699999999999996
   271   1      7.4499999999999966      20.487499999999997      46.562499999999993
   272   1      9.3124999999999929      18.624999999999993      46.562499999999993
   273   1      9.3124999999999929      20.487499999999997      44.699999999999996
   274   1      7.4499999999999966      18.624999999999993       48.42499999999999
   275   1      7.4499999999999966      20.487499999999997      50.287499999999994
   276   1      9.3124999999999929      18.624999999999993      50.287499999999994
   277   1      9.3124999999999929      20.487499999999997       48.42499999999999
   278   1      9.3124999999999929      18.624999999999993      54.012499999999989
   279   1      9.3124999999999929      20.487499999999997      52.149999999999999
   280   1      9.3124999999999929      20.487499999999997      55.874999999999993
   281   1      9.3124999999999929      22.349999999999991      31.662499999999987
   282   1      9.3124999999999929      24.212499999999995       29.79999999999999
   283   1      7.4499999999999966      24.212499999999995      35.387499999999989
   284   1      9.3124999999999929      22.349999999999991      35.387499999999989
   285   1      9.3124999999999929      24.212499999999995      33.524999999999991
   286   1      7.4499999999999966      22.349999999999991      37.249999999999993
   287   1      7.4499999999999966      24.212499999999995       39.11249999999999
   288   1      9.3124999999999929      22.349999999999991       39.11249999999999
   289   1      9.3124999999999929      24.212499999999995      37.249999999999993
   290   1      7.4499999999999966      22.349999999999991      40.974999999999994
   291   1      7.4499999999999966      24.212499999999995      42.837499999999991
   292   1      9.3124999999999929      22.349999999999991      42.837499999999991
   293   1      9.3124999999999929      24.212499999999995      40.974999999999994
   294   1      7.4499999999999966      22.349999999999991      44.699999999999996
   295   1      7.4499999999999966      24.212499999999995      46.562499999999993
   296   1      9.3124999999999929      22.349999999999991      46.562499999999993
   297   1      9.3124999999999929      24.212499999999995      44.699999999999996
   298   1      7.4499999999999966      22.349999999999991       48.42499999999999
   299   1      7.4499999999999966      24.212499999999995      50.287499999999994
   300   1      9.3124999999999929      22.349999999999991      50.287499999999994
   301   1      9.3124999999999929      24.212499999999995       48.42499999999999
   302   1      7.4499999999999966      22.349999999999991      52.149999999999999
   303   1      7.4499999999999966      24.212499999999995      54.012499999999989
   304   1      9.3124999999999929      22.349999999999991      54.012499999999989
   305   1      9.3124999999999929      24.212499999999995      52.149999999999999
   306   1      9.3124999999999929      22.349999999999991      57.737499999999997
   307   1      9.3124999999999929      24.212499999999995      55.874999999999993
   308   1      9.3124999999999929      24.212499999999995      59.600000000000001
   309   1      9.3124999999999929      26.074999999999992      27.937499999999996
   310   1      9.3124999999999929      27.937499999999996      26.074999999999992
   311   1      7.4499999999999966      27.937499999999996      31.662499999999987
   312   1      9.3124999999999929      26.074999999999992      31.662499999999987
   313   1      9.3124999999999929      27.937499999999996       29.79999999999999
   314   1      7.4499999999999966      26.074999999999992      33.524999999999991
   315   1      7.4499999999999966      27.937499999999996      35.387499999999989
   316   1      9.3124999999999929      26.074999999999992      35.387499999999989
   317   1      9.3124999999999929      27.937499999999996      33.524999999999991
   318   1      7.4499999999999966      26.074999999999992      37.249999999999993
   319   1      7.4499999999999966      27.937499999999996       39.11249999999999
   320   1      9.3124999999999929      26.074999999999992       39.11249999999999
   321   1      9.3124999999999929      27.937499999999996      37.249999999999993
   322   1      7.4499999999999966      26.074999999999992      40.974999999999994
   323   1      7.4499999999999966      27.937499999999996      42.837499999999991
   324   1      9.3124999999999929      26.074999999999992      42.837499999999991
   325   1      9.3124999999999929      27.937499999999996      40.974999999999994
   326   1      7.4499999999999966      26.074999999999992      44.699999999999996
   327   1      7.4499999999999966      27.937499999999996      46.562499999999993
   328   1      9.3124999999999929      26.074999999999992      46.562499999999993
   329   1      9.3124999999999929      27.937499999999996      44.699999999999996
   330   1      7.4499999999999966      26.074999999999992       48.42499999999999
   331   1      7.4499999999999966      27.937499999999996      50.287499999999994
   332   1      9.3124999999999929      26.074999999999992      50.287499999999994
   333   1      9.3124999999999929      27.937499999999996       48.42499999999999
   334   1      7.4499999999999966      26.074999999999992      52.149999999999999
   335   1      7.4499999999999966      27.937499999999996      54.012499999999989
   336   1      9.3124999999999929      26.074999999999992      54.012499999999989
   337   1      9.3124999999999929      27.937499999999996      52.149999999999999
   338   1      7.4499999999999966      26.074999999999992      55.874999999999993
   339   1      7.4499999999999966      27.937499999999996      57.737499999999997
   340   1      9.3124999999999929      26.074999999999992      57.737499999999997
   341   1      9.3124999999999929      27.937499999999996      55.874999999999993
   342   1      9.3124999999999929      26.074999999999992      61.462499999999991
   343   1      9.3124999999999929      27.937499999999996      59.600000000000001
   344   1      9.3124999999999929      27.937499999999996      63.324999999999996
   345   1      9.3124999999999929       29.79999999999999      24.212499999999995
   346   1      9.3124999999999929      31.662499999999987      22.349999999999991
   347   1      7.4499999999999966      31.662499999999987      27.937499999999996
   348   1      9.3124999999999929       29.79999999999999      27.937499999999996
   349   1      9.3124999999999929      31.662499999999987      26.074999999999992
   350   1      7.4499999999999966       29.79999999999999       29.79999999999999
   351   1      7.4499999999999966      31.662499999999987      31.662499999999987
   352   1      9.3124999999999929       29.79999999999999      31.662499999999987
   353   1      9.3124999999999929      31.662499999999987       29.79999999999999
   354   1      7.4499999999999966       29.79999999999999      33.524999999999991
   355   1      7.4499999999999966      31.662499999999987      35.387499999999989
   356   1      9.3124999999999929       29.79999999999999      35.387499999999989
   357   1      9.3124999999999929      31.662499999999987      33.524999999999991
   358   1      7.4499999999999966       29.79999999999999      37.249999999999993