model_files/NiFeCrCoCu/NiFeCrCoCu_30000/NiFeCrCoCu_540/NiFeCrCoCu_540_fcc_29765_temp.data (written by ASE) 

29765 	 atoms 
5  atom types
0.0                     101  xlo xhi
0.0                     101  ylo yhi
0.0                     101  zlo zhi


Atoms 

     1   1  7.1054273576010019e-15                  48.195                  48.195
     2   1      1.7850000000000037      46.410000000000004                  48.195
     3   1      1.7850000000000037                  48.195      46.410000000000004
     4   1  7.1054273576010019e-15                  48.195      51.765000000000001
     5   1      1.7850000000000037      46.410000000000004      51.765000000000001
     6   1      1.7850000000000037                  48.195      49.980000000000004
     7   1      1.7850000000000037                  48.195      53.550000000000004
     8   1  7.1054273576010019e-15      51.765000000000001                  48.195
     9   1      1.7850000000000037      49.980000000000004                  48.195
    10   1      1.7850000000000037      51.765000000000001      46.410000000000004
    11   1  7.1054273576010019e-15      49.980000000000004      49.980000000000004
    12   1  7.1054273576010019e-15      51.765000000000001      51.765000000000001
    13   1      1.7850000000000037      49.980000000000004      51.765000000000001
    14   1      1.7850000000000037      51.765000000000001      49.980000000000004
    15   1      1.7850000000000037      51.765000000000001      53.550000000000004
    16   1      1.7850000000000037      53.550000000000004                  48.195
    17   1      1.7850000000000037      53.550000000000004      51.765000000000001
    18   1      3.5700000000000074                  44.625                  44.625
    19   1       5.355000000000004      42.840000000000003                  44.625
    20   1       5.355000000000004                  44.625      42.840000000000003
    21   1      3.5700000000000074                  44.625                  48.195
    22   1       5.355000000000004      42.840000000000003                  48.195
    23   1       5.355000000000004                  44.625      46.410000000000004
    24   1      3.5700000000000074                  44.625      51.765000000000001
    25   1       5.355000000000004      42.840000000000003      51.765000000000001
    26   1       5.355000000000004                  44.625      49.980000000000004
    27   1      3.5700000000000074                  44.625      55.335000000000001
    28   1       5.355000000000004      42.840000000000003      55.335000000000001
    29   1       5.355000000000004                  44.625      53.550000000000004
    30   1       5.355000000000004                  44.625      57.120000000000005
    31   1      3.5700000000000074                  48.195                  44.625
    32   1       5.355000000000004      46.410000000000004                  44.625
    33   1       5.355000000000004                  48.195      42.840000000000003
    34   1      3.5700000000000074      46.410000000000004      46.410000000000004
    35   1      3.5700000000000074                  48.195                  48.195
    36   1       5.355000000000004      46.410000000000004                  48.195
    37   1       5.355000000000004                  48.195      46.410000000000004
    38   1      3.5700000000000074      46.410000000000004      49.980000000000004
    39   1      3.5700000000000074                  48.195      51.765000000000001
    40   1       5.355000000000004      46.410000000000004      51.765000000000001
    41   1       5.355000000000004                  48.195      49.980000000000004
    42   1      3.5700000000000074      46.410000000000004      53.550000000000004
    43   1      3.5700000000000074                  48.195      55.335000000000001
    44   1       5.355000000000004      46.410000000000004      55.335000000000001
    45   1       5.355000000000004                  48.195      53.550000000000004
    46   1       5.355000000000004                  48.195      57.120000000000005
    47   1      3.5700000000000074      51.765000000000001                  44.625
    48   1       5.355000000000004      49.980000000000004                  44.625
    49   1       5.355000000000004      51.765000000000001      42.840000000000003
    50   1      3.5700000000000074      49.980000000000004      46.410000000000004
    51   1      3.5700000000000074      51.765000000000001                  48.195
    52   1       5.355000000000004      49.980000000000004                  48.195
    53   1       5.355000000000004      51.765000000000001      46.410000000000004
    54   1      3.5700000000000074      49.980000000000004      49.980000000000004
    55   1      3.5700000000000074      51.765000000000001      51.765000000000001
    56   1       5.355000000000004      49.980000000000004      51.765000000000001
    57   1       5.355000000000004      51.765000000000001      49.980000000000004
    58   1      3.5700000000000074      49.980000000000004      53.550000000000004
    59   1      3.5700000000000074      51.765000000000001      55.335000000000001
    60   1       5.355000000000004      49.980000000000004      55.335000000000001
    61   1       5.355000000000004      51.765000000000001      53.550000000000004
    62   1       5.355000000000004      51.765000000000001      57.120000000000005
    63   1      3.5700000000000074      55.335000000000001                  44.625
    64   1       5.355000000000004      53.550000000000004                  44.625
    65   1       5.355000000000004      55.335000000000001      42.840000000000003
    66   1      3.5700000000000074      53.550000000000004      46.410000000000004
    67   1      3.5700000000000074      55.335000000000001                  48.195
    68   1       5.355000000000004      53.550000000000004                  48.195
    69   1       5.355000000000004      55.335000000000001      46.410000000000004
    70   1      3.5700000000000074      53.550000000000004      49.980000000000004
    71   1      3.5700000000000074      55.335000000000001      51.765000000000001
    72   1       5.355000000000004      53.550000000000004      51.765000000000001
    73   1       5.355000000000004      55.335000000000001      49.980000000000004
    74   1      3.5700000000000074      53.550000000000004      53.550000000000004
    75   1      3.5700000000000074      55.335000000000001      55.335000000000001
    76   1       5.355000000000004      53.550000000000004      55.335000000000001
    77   1       5.355000000000004      55.335000000000001      53.550000000000004
    78   1       5.355000000000004      55.335000000000001      57.120000000000005
    79   1       5.355000000000004      57.120000000000005                  44.625
    80   1       5.355000000000004      57.120000000000005                  48.195
    81   1       5.355000000000004      57.120000000000005      51.765000000000001
    82   1       5.355000000000004      57.120000000000005      55.335000000000001
    83   1      8.9250000000000043      37.484999999999999      39.270000000000003
    84   1      8.9250000000000043      37.484999999999999      42.840000000000003
    85   1      8.9250000000000043      37.484999999999999      46.410000000000004
    86   1      8.9250000000000043      37.484999999999999      49.980000000000004
    87   1      8.9250000000000043      37.484999999999999      53.550000000000004
    88   1      8.9250000000000043      37.484999999999999      57.120000000000005
    89   1      8.9250000000000043      37.484999999999999      60.689999999999998
    90   1      8.9250000000000043      39.270000000000003      37.484999999999999
    91   1      7.1400000000000077      39.270000000000003      39.270000000000003
    92   1      7.1400000000000077                  41.055                  41.055
    93   1      8.9250000000000043      39.270000000000003                  41.055
    94   1      8.9250000000000043                  41.055      39.270000000000003
    95   1      7.1400000000000077      39.270000000000003      42.840000000000003
    96   1      7.1400000000000077                  41.055                  44.625
    97   1      8.9250000000000043      39.270000000000003                  44.625
    98   1      8.9250000000000043                  41.055      42.840000000000003
    99   1      7.1400000000000077      39.270000000000003      46.410000000000004
   100   1      7.1400000000000077                  41.055                  48.195
   101   1      8.9250000000000043      39.270000000000003                  48.195
   102   1      8.9250000000000043                  41.055      46.410000000000004
   103   1      7.1400000000000077      39.270000000000003      49.980000000000004
   104   1      7.1400000000000077                  41.055      51.765000000000001
   105   1      8.9250000000000043      39.270000000000003      51.765000000000001
   106   1      8.9250000000000043                  41.055      49.980000000000004
   107   1      7.1400000000000077      39.270000000000003      53.550000000000004
   108   1      7.1400000000000077                  41.055      55.335000000000001
   109   1      8.9250000000000043      39.270000000000003      55.335000000000001
   110   1      8.9250000000000043                  41.055      53.550000000000004
   111   1      7.1400000000000077      39.270000000000003      57.120000000000005
   112   1      7.1400000000000077                  41.055      58.904999999999994
   113   1      8.9250000000000043      39.270000000000003      58.904999999999994
   114   1      8.9250000000000043                  41.055      57.120000000000005
   115   1      7.1400000000000077      39.270000000000003      60.689999999999998
   116   1      8.9250000000000043      39.270000000000003      62.475000000000001
   117   1      8.9250000000000043                  41.055      60.689999999999998
   118   1      8.9250000000000043      42.840000000000003      37.484999999999999
   119   1      7.1400000000000077      42.840000000000003      39.270000000000003
   120   1      7.1400000000000077                  44.625                  41.055
   121   1      8.9250000000000043      42.840000000000003                  41.055
   122   1      8.9250000000000043                  44.625      39.270000000000003
   123   1      7.1400000000000077      42.840000000000003      42.840000000000003
   124   1      7.1400000000000077                  44.625                  44.625
   125   1      8.9250000000000043      42.840000000000003                  44.625
   126   1      8.9250000000000043                  44.625      42.840000000000003
   127   1      7.1400000000000077      42.840000000000003      46.410000000000004
   128   1      7.1400000000000077                  44.625                  48.195
   129   1      8.9250000000000043      42.840000000000003                  48.195
   130   1      8.9250000000000043                  44.625      46.410000000000004
   131   1      7.1400000000000077      42.840000000000003      49.980000000000004
   132   1      7.1400000000000077                  44.625      51.765000000000001
   133   1      8.9250000000000043      42.840000000000003      51.765000000000001
   134   1      8.9250000000000043                  44.625      49.980000000000004
   135   1      7.1400000000000077      42.840000000000003      53.550000000000004
   136   1      7.1400000000000077                  44.625      55.335000000000001
   137   1      8.9250000000000043      42.840000000000003      55.335000000000001
   138   1      8.9250000000000043                  44.625      53.550000000000004
   139   1      7.1400000000000077      42.840000000000003      57.120000000000005
   140   1      7.1400000000000077                  44.625      58.904999999999994
   141   1      8.9250000000000043      42.840000000000003      58.904999999999994
   142   1      8.9250000000000043                  44.625      57.120000000000005
   143   1      7.1400000000000077      42.840000000000003      60.689999999999998
   144   1      8.9250000000000043      42.840000000000003      62.475000000000001
   145   1      8.9250000000000043                  44.625      60.689999999999998
   146   1      8.9250000000000043      46.410000000000004      37.484999999999999
   147   1      7.1400000000000077      46.410000000000004      39.270000000000003
   148   1      7.1400000000000077                  48.195                  41.055
   149   1      8.9250000000000043      46.410000000000004                  41.055
   150   1      8.9250000000000043                  48.195      39.270000000000003
   151   1      7.1400000000000077      46.410000000000004      42.840000000000003
   152   1      7.1400000000000077                  48.195                  44.625
   153   1      8.9250000000000043      46.410000000000004                  44.625
   154   1      8.9250000000000043                  48.195      42.840000000000003
   155   1      7.1400000000000077      46.410000000000004      46.410000000000004
   156   1      7.1400000000000077                  48.195                  48.195
   157   1      8.9250000000000043      46.410000000000004                  48.195
   158   1      8.9250000000000043                  48.195      46.410000000000004
   159   1      7.1400000000000077      46.410000000000004      49.980000000000004
   160   1      7.1400000000000077                  48.195      51.765000000000001
   161   1      8.9250000000000043      46.410000000000004      51.765000000000001
   162   1      8.9250000000000043                  48.195      49.980000000000004
   163   1      7.1400000000000077      46.410000000000004      53.550000000000004
   164   1      7.1400000000000077                  48.195      55.335000000000001
   165   1      8.9250000000000043      46.410000000000004      55.335000000000001
   166   1      8.9250000000000043                  48.195      53.550000000000004
   167   1      7.1400000000000077      46.410000000000004      57.120000000000005
   168   1      7.1400000000000077                  48.195      58.904999999999994
   169   1      8.9250000000000043      46.410000000000004      58.904999999999994
   170   1      8.9250000000000043                  48.195      57.120000000000005
   171   1      7.1400000000000077      46.410000000000004      60.689999999999998
   172   1      8.9250000000000043      46.410000000000004      62.475000000000001
   173   1      8.9250000000000043                  48.195      60.689999999999998
   174   1      8.9250000000000043      49.980000000000004      37.484999999999999
   175   1      7.1400000000000077      49.980000000000004      39.270000000000003
   176   1      7.1400000000000077      51.765000000000001                  41.055
   177   1      8.9250000000000043      49.980000000000004                  41.055
   178   1      8.9250000000000043      51.765000000000001      39.270000000000003
   179   1      7.1400000000000077      49.980000000000004      42.840000000000003
   180   1      7.1400000000000077      51.765000000000001                  44.625
   181   1      8.9250000000000043      49.980000000000004                  44.625
   182   1      8.9250000000000043      51.765000000000001      42.840000000000003
   183   1      7.1400000000000077      49.980000000000004      46.410000000000004
   184   1      7.1400000000000077      51.765000000000001                  48.195
   185   1      8.9250000000000043      49.980000000000004                  48.195
   186   1      8.9250000000000043      51.765000000000001      46.410000000000004
   187   1      7.1400000000000077      49.980000000000004      49.980000000000004
   188   1      7.1400000000000077      51.765000000000001      51.765000000000001
   189   1      8.9250000000000043      49.980000000000004      51.765000000000001
   190   1      8.9250000000000043      51.765000000000001      49.980000000000004
   191   1      7.1400000000000077      49.980000000000004      53.550000000000004
   192   1      7.1400000000000077      51.765000000000001      55.335000000000001
   193   1      8.9250000000000043      49.980000000000004      55.335000000000001
   194   1      8.9250000000000043      51.765000000000001      53.550000000000004
   195   1      7.1400000000000077      49.980000000000004      57.120000000000005
   196   1      7.1400000000000077      51.765000000000001      58.904999999999994
   197   1      8.9250000000000043      49.980000000000004      58.904999999999994
   198   1      8.9250000000000043      51.765000000000001      57.120000000000005
   199   1      7.1400000000000077      49.980000000000004      60.689999999999998
   200   1      8.9250000000000043      49.980000000000004      62.475000000000001
   201   1      8.9250000000000043      51.765000000000001      60.689999999999998
   202   1      8.9250000000000043      53.550000000000004      37.484999999999999
   203   1      7.1400000000000077      53.550000000000004      39.270000000000003
   204   1      7.1400000000000077      55.335000000000001                  41.055
   205   1      8.9250000000000043      53.550000000000004                  41.055
   206   1      8.9250000000000043      55.335000000000001      39.270000000000003
   207   1      7.1400000000000077      53.550000000000004      42.840000000000003
   208   1      7.1400000000000077      55.335000000000001                  44.625
   209   1      8.9250000000000043      53.550000000000004                  44.625
   210   1      8.9250000000000043      55.335000000000001      42.840000000000003
   211   1      7.1400000000000077      53.550000000000004      46.410000000000004
   212   1      7.1400000000000077      55.335000000000001                  48.195
   213   1      8.9250000000000043      53.550000000000004                  48.195
   214   1      8.9250000000000043      55.335000000000001      46.410000000000004
   215   1      7.1400000000000077      53.550000000000004      49.980000000000004
   216   1      7.1400000000000077      55.335000000000001      51.765000000000001
   217   1      8.9250000000000043      53.550000000000004      51.765000000000001
   218   1      8.9250000000000043      55.335000000000001      49.980000000000004
   219   1      7.1400000000000077      53.550000000000004      53.550000000000004
   220   1      7.1400000000000077      55.335000000000001      55.335000000000001
   221   1      8.9250000000000043      53.550000000000004      55.335000000000001
   222   1      8.9250000000000043      55.335000000000001      53.550000000000004
   223   1      7.1400000000000077      53.550000000000004      57.120000000000005
   224   1      7.1400000000000077      55.335000000000001      58.904999999999994
   225   1      8.9250000000000043      53.550000000000004      58.904999999999994
   226   1      8.9250000000000043      55.335000000000001      57.120000000000005
   227   1      7.1400000000000077      53.550000000000004      60.689999999999998
   228   1      8.9250000000000043      53.550000000000004      62.475000000000001
   229   1      8.9250000000000043      55.335000000000001      60.689999999999998
   230   1      8.9250000000000043      57.120000000000005      37.484999999999999
   231   1      7.1400000000000077      57.120000000000005      39.270000000000003
   232   1      7.1400000000000077      58.904999999999994                  41.055
   233   1      8.9250000000000043      57.120000000000005                  41.055
   234   1      8.9250000000000043      58.904999999999994      39.270000000000003
   235   1      7.1400000000000077      57.120000000000005      42.840000000000003
   236   1      7.1400000000000077      58.904999999999994                  44.625
   237   1      8.9250000000000043      57.120000000000005                  44.625
   238   1      8.9250000000000043      58.904999999999994      42.840000000000003
   239   1      7.1400000000000077      57.120000000000005      46.410000000000004
   240   1      7.1400000000000077      58.904999999999994                  48.195
   241   1      8.9250000000000043      57.120000000000005                  48.195
   242   1      8.9250000000000043      58.904999999999994      46.410000000000004
   243   1      7.1400000000000077      57.120000000000005      49.980000000000004
   244   1      7.1400000000000077      58.904999999999994      51.765000000000001
   245   1      8.9250000000000043      57.120000000000005      51.765000000000001
   246   1      8.9250000000000043      58.904999999999994      49.980000000000004
   247   1      7.1400000000000077      57.120000000000005      53.550000000000004
   248   1      7.1400000000000077      58.904999999999994      55.335000000000001
   249   1      8.9250000000000043      57.120000000000005      55.335000000000001
   250   1      8.9250000000000043      58.904999999999994      53.550000000000004
   251   1      7.1400000000000077      57.120000000000005      57.120000000000005
   252   1      7.1400000000000077      58.904999999999994      58.904999999999994
   253   1      8.9250000000000043      57.120000000000005      58.904999999999994
   254   1      8.9250000000000043      58.904999999999994      57.120000000000005
   255   1      7.1400000000000077      57.120000000000005      60.689999999999998
   256   1      8.9250000000000043      57.120000000000005      62.475000000000001
   257   1      8.9250000000000043      58.904999999999994      60.689999999999998
   258   1      8.9250000000000043      60.689999999999998      37.484999999999999
   259   1      7.1400000000000077      60.689999999999998      39.270000000000003
   260   1      8.9250000000000043      60.689999999999998                  41.055
   261   1      8.9250000000000043      62.475000000000001      39.270000000000003
   262   1      7.1400000000000077      60.689999999999998      42.840000000000003
   263   1      8.9250000000000043      60.689999999999998                  44.625
   264   1      8.9250000000000043      62.475000000000001      42.840000000000003
   265   1      7.1400000000000077      60.689999999999998      46.410000000000004
   266   1      8.9250000000000043      60.689999999999998                  48.195
   267   1      8.9250000000000043      62.475000000000001      46.410000000000004
   268   1      7.1400000000000077      60.689999999999998      49.980000000000004
   269   1      8.9250000000000043      60.689999999999998      51.765000000000001
   270   1      8.9250000000000043      62.475000000000001      49.980000000000004
   271   1      7.1400000000000077      60.689999999999998      53.550000000000004
   272   1      8.9250000000000043      60.689999999999998      55.335000000000001
   273   1      8.9250000000000043      62.475000000000001      53.550000000000004
   274   1      7.1400000000000077      60.689999999999998      57.120000000000005
   275   1      8.9250000000000043      60.689999999999998      58.904999999999994
   276   1      8.9250000000000043      62.475000000000001      57.120000000000005
   277   1      7.1400000000000077      60.689999999999998      60.689999999999998
   278   1      8.9250000000000043      60.689999999999998      62.475000000000001
   279   1      8.9250000000000043      62.475000000000001      60.689999999999998
   280   1      12.495000000000005      33.914999999999999      35.700000000000003
   281   1      12.495000000000005      33.914999999999999      39.270000000000003
   282   1      12.495000000000005      33.914999999999999      42.840000000000003
   283   1      12.495000000000005      33.914999999999999      46.410000000000004
   284   1      12.495000000000005      33.914999999999999      49.980000000000004
   285   1      12.495000000000005      33.914999999999999      53.550000000000004
   286   1      12.495000000000005      33.914999999999999      57.120000000000005
   287   1      12.495000000000005      33.914999999999999      60.689999999999998
   288   1      12.495000000000005      33.914999999999999      64.260000000000005
   289   1      12.495000000000005      35.700000000000003      33.914999999999999
   290   1      10.710000000000008      35.700000000000003      35.700000000000003
   291   1      10.710000000000008      37.484999999999999      37.484999999999999
   292   1      12.495000000000005      35.700000000000003      37.484999999999999
   293   1      12.495000000000005      37.484999999999999      35.700000000000003
   294   1      10.710000000000008      35.700000000000003      39.270000000000003
   295   1      10.710000000000008      37.484999999999999                  41.055
   296   1      12.495000000000005      35.700000000000003                  41.055
   297   1      12.495000000000005      37.484999999999999      39.270000000000003
   298   1      10.710000000000008      35.700000000000003      42.840000000000003
   299   1      10.710000000000008      37.484999999999999                  44.625
   300   1      12.495000000000005      35.700000000000003                  44.625
   301   1      12.495000000000005      37.484999999999999      42.840000000000003
   302   1      10.710000000000008      35.700000000000003      46.410000000000004
   303   1      10.710000000000008      37.484999999999999                  48.195
   304   1      12.495000000000005      35.700000000000003                  48.195
   305   1      12.495000000000005      37.484999999999999      46.410000000000004
   306   1      10.710000000000008      35.700000000000003      49.980000000000004
   307   1      10.710000000000008      37.484999999999999      51.765000000000001
   308   1      12.495000000000005      35.700000000000003      51.765000000000001
   309   1      12.495000000000005      37.484999999999999      49.980000000000004
   310   1      10.710000000000008      35.700000000000003      53.550000000000004
   311   1      10.710000000000008      37.484999999999999      55.335000000000001
   312   1      12.495000000000005      35.700000000000003      55.335000000000001
   313   1      12.495000000000005      37.484999999999999      53.550000000000004
   314   1      10.710000000000008      35.700000000000003      57.120000000000005
   315   1      10.710000000000008      37.484999999999999      58.904999999999994
   316   1      12.495000000000005      35.700000000000003      58.904999999999994
   317   1      12.495000000000005      37.484999999999999      57.120000000000005
   318   1      10.710000000000008      35.700000000000003      60.689999999999998
   319   1      10.710000000000008      37.484999999999999      62.475000000000001
   320   1      12.495000000000005      35.700000000000003      62.475000000000001
   321   1      12.495000000000005      37.484999999999999      60.689999999999998
   322   1      10.710000000000008      35.700000000000003      64.260000000000005
   323   1      12.495000000000005      35.700000000000003      66.045000000000002
   324   1      12.495000000000005      37.484999999999999      64.260000000000005
   325   1      12.495000000000005      39.270000000000003      33.914999999999999
   326   1      10.710000000000008      39.270000000000003      35.700000000000003
   327   1      10.710000000000008                  41.055      37.484999999999999
   328   1      12.495000000000005      39.270000000000003      37.484999999999999
   329   1      12.495000000000005                  41.055      35.700000000000003
   330   1      10.710000000000008      39.270000000000003      39.270000000000003
   331   1      10.710000000000008                  41.055                  41.055
   332   1      12.495000000000005      39.270000000000003                  41.055
   333   1      12.495000000000005                  41.055      39.270000000000003
   334   1      10.710000000000008      39.270000000000003      42.840000000000003
   335   1      10.710000000000008                  41.055                  44.625
   336   1      12.495000000000005      39.270000000000003                  44.625
   337   1      12.495000000000005                  41.055      42.840000000000003
   338   1      10.710000000000008      39.270000000000003      46.410000000000004
   339   1      10.710000000000008                  41.055                  48.195
   340   1      12.495000000000005      39.270000000000003                  48.195
   341   1      12.495000000000005                  41.055      46.410000000000004
   342   1      10.710000000000008      39.270000000000003      49.980000000000004
   343   1      10.710000000000008                  41.055      51.765000000000001
   344   1      12.495000000000005      39.270000000000003      51.765000000000001
   345   1      12.495000000000005                  41.055      49.980000000000004
   346   1      10.710000000000008      39.270000000000003      53.550000000000004
   347   1      10.710000000000008                  41.055      55.335000000000001
   348   1      12.495000000000005      39.270000000000003      55.335000000000001
   349   1      12.495000000000005                  41.055      53.550000000000004
   350   1      10.710000000000008      39.270000000000003      57.120000000000005
   351   1      10.710000000000008                  41.055      58.904999999999994
   352   1      12.495000000000005      39.270000000000003      58.904999999999994
   353   1      12.495000000000005                  41.055      57.120000000000005
   354   1      10.710000000000008      39.270000000000003      60.689999999999998
   355   1      10.710000000000008                  41.055      62.475000000000001
   356   1      12.495000000000005      39.270000000000003      62.475000000000001
   357   1      12.495000000000005                  41.055      60.689999999999998
   358   1      10.710000000000008      39.270000000000003      64.260000000000005