model_files/CuAu/CuAu_30000/CuAu_430/CuAu_430_fcc_29909_temp.data (written by ASE) 

29909 	 atoms 
2  atom types
0.0                     104  xlo xhi
0.0                     104  ylo yhi
0.0                     104  zlo zhi


Atoms 

     1   1      1.8700000000000048      50.490000000000002      52.360000000000007
     2   1      1.8700000000000048      52.360000000000007      50.490000000000002
     3   1  7.1054273576010019e-15      52.360000000000007      52.360000000000007
     4   1      1.8700000000000048      52.360000000000007      54.230000000000004
     5   1      1.8700000000000048      54.230000000000004      52.360000000000007
     6   1       3.740000000000002      46.750000000000007      46.750000000000007
     7   1      5.6100000000000074       44.88000000000001      46.750000000000007
     8   1      5.6100000000000074      46.750000000000007       44.88000000000001
     9   1       3.740000000000002      46.750000000000007      50.490000000000002
    10   1      5.6100000000000074       44.88000000000001      50.490000000000002
    11   1      5.6100000000000074      46.750000000000007      48.620000000000012
    12   1       3.740000000000002      46.750000000000007      54.230000000000004
    13   1      5.6100000000000074       44.88000000000001      54.230000000000004
    14   1      5.6100000000000074      46.750000000000007      52.360000000000007
    15   1       3.740000000000002      46.750000000000007      57.970000000000006
    16   1      5.6100000000000074       44.88000000000001      57.970000000000006
    17   1      5.6100000000000074      46.750000000000007      56.100000000000009
    18   1      5.6100000000000074      46.750000000000007      59.840000000000011
    19   1       3.740000000000002      50.490000000000002      46.750000000000007
    20   1      5.6100000000000074      48.620000000000012      46.750000000000007
    21   1      5.6100000000000074      50.490000000000002       44.88000000000001
    22   1       3.740000000000002      48.620000000000012      48.620000000000012
    23   1       3.740000000000002      50.490000000000002      50.490000000000002
    24   1      5.6100000000000074      48.620000000000012      50.490000000000002
    25   1      5.6100000000000074      50.490000000000002      48.620000000000012
    26   1       3.740000000000002      48.620000000000012      52.360000000000007
    27   1       3.740000000000002      50.490000000000002      54.230000000000004
    28   1      5.6100000000000074      48.620000000000012      54.230000000000004
    29   1      5.6100000000000074      50.490000000000002      52.360000000000007
    30   1       3.740000000000002      48.620000000000012      56.100000000000009
    31   1       3.740000000000002      50.490000000000002      57.970000000000006
    32   1      5.6100000000000074      48.620000000000012      57.970000000000006
    33   1      5.6100000000000074      50.490000000000002      56.100000000000009
    34   1      5.6100000000000074      50.490000000000002      59.840000000000011
    35   1       3.740000000000002      54.230000000000004      46.750000000000007
    36   1      5.6100000000000074      52.360000000000007      46.750000000000007
    37   1      5.6100000000000074      54.230000000000004       44.88000000000001
    38   1       3.740000000000002      52.360000000000007      48.620000000000012
    39   1       3.740000000000002      54.230000000000004      50.490000000000002
    40   1      5.6100000000000074      52.360000000000007      50.490000000000002
    41   1      5.6100000000000074      54.230000000000004      48.620000000000012
    42   1       3.740000000000002      52.360000000000007      52.360000000000007
    43   1       3.740000000000002      54.230000000000004      54.230000000000004
    44   1      5.6100000000000074      52.360000000000007      54.230000000000004
    45   1      5.6100000000000074      54.230000000000004      52.360000000000007
    46   1       3.740000000000002      52.360000000000007      56.100000000000009
    47   1       3.740000000000002      54.230000000000004      57.970000000000006
    48   1      5.6100000000000074      52.360000000000007      57.970000000000006
    49   1      5.6100000000000074      54.230000000000004      56.100000000000009
    50   1      5.6100000000000074      54.230000000000004      59.840000000000011
    51   1       3.740000000000002      57.970000000000006      46.750000000000007
    52   1      5.6100000000000074      56.100000000000009      46.750000000000007
    53   1      5.6100000000000074      57.970000000000006       44.88000000000001
    54   1       3.740000000000002      56.100000000000009      48.620000000000012
    55   1       3.740000000000002      57.970000000000006      50.490000000000002
    56   1      5.6100000000000074      56.100000000000009      50.490000000000002
    57   1      5.6100000000000074      57.970000000000006      48.620000000000012
    58   1       3.740000000000002      56.100000000000009      52.360000000000007
    59   1       3.740000000000002      57.970000000000006      54.230000000000004
    60   1      5.6100000000000074      56.100000000000009      54.230000000000004
    61   1      5.6100000000000074      57.970000000000006      52.360000000000007
    62   1       3.740000000000002      56.100000000000009      56.100000000000009
    63   1       3.740000000000002      57.970000000000006      57.970000000000006
    64   1      5.6100000000000074      56.100000000000009      57.970000000000006
    65   1      5.6100000000000074      57.970000000000006      56.100000000000009
    66   1      5.6100000000000074      57.970000000000006      59.840000000000011
    67   1      5.6100000000000074      59.840000000000011      46.750000000000007
    68   1      5.6100000000000074      59.840000000000011      50.490000000000002
    69   1      5.6100000000000074      59.840000000000011      54.230000000000004
    70   1      5.6100000000000074      59.840000000000011      57.970000000000006
    71   1      9.3500000000000014       39.27000000000001      41.140000000000008
    72   1      9.3500000000000014       39.27000000000001       44.88000000000001
    73   1      9.3500000000000014       39.27000000000001      48.620000000000012
    74   1      9.3500000000000014       39.27000000000001      52.360000000000007
    75   1      9.3500000000000014       39.27000000000001      56.100000000000009
    76   1      9.3500000000000014       39.27000000000001      59.840000000000011
    77   1      9.3500000000000014       39.27000000000001      63.580000000000013
    78   1      9.3500000000000014      41.140000000000008       39.27000000000001
    79   1       7.480000000000004      43.010000000000012      43.010000000000012
    80   1      9.3500000000000014      41.140000000000008      43.010000000000012
    81   1      9.3500000000000014      43.010000000000012      41.140000000000008
    82   1       7.480000000000004      43.010000000000012      46.750000000000007
    83   1      9.3500000000000014      41.140000000000008      46.750000000000007
    84   1      9.3500000000000014      43.010000000000012       44.88000000000001
    85   1       7.480000000000004      43.010000000000012      50.490000000000002
    86   1      9.3500000000000014      41.140000000000008      50.490000000000002
    87   1      9.3500000000000014      43.010000000000012      48.620000000000012
    88   1       7.480000000000004      43.010000000000012      54.230000000000004
    89   1      9.3500000000000014      41.140000000000008      54.230000000000004
    90   1      9.3500000000000014      43.010000000000012      52.360000000000007
    91   1       7.480000000000004      43.010000000000012      57.970000000000006
    92   1      9.3500000000000014      41.140000000000008      57.970000000000006
    93   1      9.3500000000000014      43.010000000000012      56.100000000000009
    94   1       7.480000000000004      43.010000000000012      61.710000000000008
    95   1      9.3500000000000014      41.140000000000008      61.710000000000008
    96   1      9.3500000000000014      43.010000000000012      59.840000000000011
    97   1      9.3500000000000014      41.140000000000008      65.450000000000017
    98   1      9.3500000000000014      43.010000000000012      63.580000000000013
    99   1      9.3500000000000014       44.88000000000001       39.27000000000001
   100   1       7.480000000000004      46.750000000000007      43.010000000000012
   101   1      9.3500000000000014       44.88000000000001      43.010000000000012
   102   1      9.3500000000000014      46.750000000000007      41.140000000000008
   103   1       7.480000000000004       44.88000000000001       44.88000000000001
   104   1       7.480000000000004      46.750000000000007      46.750000000000007
   105   1      9.3500000000000014       44.88000000000001      46.750000000000007
   106   1      9.3500000000000014      46.750000000000007       44.88000000000001
   107   1       7.480000000000004       44.88000000000001      48.620000000000012
   108   1       7.480000000000004      46.750000000000007      50.490000000000002
   109   1      9.3500000000000014       44.88000000000001      50.490000000000002
   110   1      9.3500000000000014      46.750000000000007      48.620000000000012
   111   1       7.480000000000004       44.88000000000001      52.360000000000007
   112   1       7.480000000000004      46.750000000000007      54.230000000000004
   113   1      9.3500000000000014       44.88000000000001      54.230000000000004
   114   1      9.3500000000000014      46.750000000000007      52.360000000000007
   115   1       7.480000000000004       44.88000000000001      56.100000000000009
   116   1       7.480000000000004      46.750000000000007      57.970000000000006
   117   1      9.3500000000000014       44.88000000000001      57.970000000000006
   118   1      9.3500000000000014      46.750000000000007      56.100000000000009
   119   1       7.480000000000004       44.88000000000001      59.840000000000011
   120   1       7.480000000000004      46.750000000000007      61.710000000000008
   121   1      9.3500000000000014       44.88000000000001      61.710000000000008
   122   1      9.3500000000000014      46.750000000000007      59.840000000000011
   123   1      9.3500000000000014       44.88000000000001      65.450000000000017
   124   1      9.3500000000000014      46.750000000000007      63.580000000000013
   125   1      9.3500000000000014      48.620000000000012       39.27000000000001
   126   1       7.480000000000004      50.490000000000002      43.010000000000012
   127   1      9.3500000000000014      48.620000000000012      43.010000000000012
   128   1      9.3500000000000014      50.490000000000002      41.140000000000008
   129   1       7.480000000000004      48.620000000000012       44.88000000000001
   130   1       7.480000000000004      50.490000000000002      46.750000000000007
   131   1      9.3500000000000014      48.620000000000012      46.750000000000007
   132   1      9.3500000000000014      50.490000000000002       44.88000000000001
   133   1       7.480000000000004      48.620000000000012      48.620000000000012
   134   1       7.480000000000004      50.490000000000002      50.490000000000002
   135   1      9.3500000000000014      48.620000000000012      50.490000000000002
   136   1      9.3500000000000014      50.490000000000002      48.620000000000012
   137   1       7.480000000000004      48.620000000000012      52.360000000000007
   138   1       7.480000000000004      50.490000000000002      54.230000000000004
   139   1      9.3500000000000014      48.620000000000012      54.230000000000004
   140   1      9.3500000000000014      50.490000000000002      52.360000000000007
   141   1       7.480000000000004      48.620000000000012      56.100000000000009
   142   1       7.480000000000004      50.490000000000002      57.970000000000006
   143   1      9.3500000000000014      48.620000000000012      57.970000000000006
   144   1      9.3500000000000014      50.490000000000002      56.100000000000009
   145   1       7.480000000000004      48.620000000000012      59.840000000000011
   146   1       7.480000000000004      50.490000000000002      61.710000000000008
   147   1      9.3500000000000014      48.620000000000012      61.710000000000008
   148   1      9.3500000000000014      50.490000000000002      59.840000000000011
   149   1      9.3500000000000014      48.620000000000012      65.450000000000017
   150   1      9.3500000000000014      50.490000000000002      63.580000000000013
   151   1      9.3500000000000014      52.360000000000007       39.27000000000001
   152   1       7.480000000000004      54.230000000000004      43.010000000000012
   153   1      9.3500000000000014      52.360000000000007      43.010000000000012
   154   1      9.3500000000000014      54.230000000000004      41.140000000000008
   155   1       7.480000000000004      52.360000000000007       44.88000000000001
   156   1       7.480000000000004      54.230000000000004      46.750000000000007
   157   1      9.3500000000000014      52.360000000000007      46.750000000000007
   158   1      9.3500000000000014      54.230000000000004       44.88000000000001
   159   1       7.480000000000004      52.360000000000007      48.620000000000012
   160   1       7.480000000000004      54.230000000000004      50.490000000000002
   161   1      9.3500000000000014      52.360000000000007      50.490000000000002
   162   1      9.3500000000000014      54.230000000000004      48.620000000000012
   163   1       7.480000000000004      52.360000000000007      52.360000000000007
   164   1       7.480000000000004      54.230000000000004      54.230000000000004
   165   1      9.3500000000000014      52.360000000000007      54.230000000000004
   166   1      9.3500000000000014      54.230000000000004      52.360000000000007
   167   1       7.480000000000004      52.360000000000007      56.100000000000009
   168   1       7.480000000000004      54.230000000000004      57.970000000000006
   169   1      9.3500000000000014      52.360000000000007      57.970000000000006
   170   1      9.3500000000000014      54.230000000000004      56.100000000000009
   171   1       7.480000000000004      52.360000000000007      59.840000000000011
   172   1       7.480000000000004      54.230000000000004      61.710000000000008
   173   1      9.3500000000000014      52.360000000000007      61.710000000000008
   174   1      9.3500000000000014      54.230000000000004      59.840000000000011
   175   1      9.3500000000000014      52.360000000000007      65.450000000000017
   176   1      9.3500000000000014      54.230000000000004      63.580000000000013
   177   1      9.3500000000000014      56.100000000000009       39.27000000000001
   178   1       7.480000000000004      57.970000000000006      43.010000000000012
   179   1      9.3500000000000014      56.100000000000009      43.010000000000012
   180   1      9.3500000000000014      57.970000000000006      41.140000000000008
   181   1       7.480000000000004      56.100000000000009       44.88000000000001
   182   1       7.480000000000004      57.970000000000006      46.750000000000007
   183   1      9.3500000000000014      56.100000000000009      46.750000000000007
   184   1      9.3500000000000014      57.970000000000006       44.88000000000001
   185   1       7.480000000000004      56.100000000000009      48.620000000000012
   186   1       7.480000000000004      57.970000000000006      50.490000000000002
   187   1      9.3500000000000014      56.100000000000009      50.490000000000002
   188   1      9.3500000000000014      57.970000000000006      48.620000000000012
   189   1       7.480000000000004      56.100000000000009      52.360000000000007
   190   1       7.480000000000004      57.970000000000006      54.230000000000004
   191   1      9.3500000000000014      56.100000000000009      54.230000000000004
   192   1      9.3500000000000014      57.970000000000006      52.360000000000007
   193   1       7.480000000000004      56.100000000000009      56.100000000000009
   194   1       7.480000000000004      57.970000000000006      57.970000000000006
   195   1      9.3500000000000014      56.100000000000009      57.970000000000006
   196   1      9.3500000000000014      57.970000000000006      56.100000000000009
   197   1       7.480000000000004      56.100000000000009      59.840000000000011
   198   1       7.480000000000004      57.970000000000006      61.710000000000008
   199   1      9.3500000000000014      56.100000000000009      61.710000000000008
   200   1      9.3500000000000014      57.970000000000006      59.840000000000011
   201   1      9.3500000000000014      56.100000000000009      65.450000000000017
   202   1      9.3500000000000014      57.970000000000006      63.580000000000013
   203   1      9.3500000000000014      59.840000000000011       39.27000000000001
   204   1       7.480000000000004      61.710000000000008      43.010000000000012
   205   1      9.3500000000000014      59.840000000000011      43.010000000000012
   206   1      9.3500000000000014      61.710000000000008      41.140000000000008
   207   1       7.480000000000004      59.840000000000011       44.88000000000001
   208   1       7.480000000000004      61.710000000000008      46.750000000000007
   209   1      9.3500000000000014      59.840000000000011      46.750000000000007
   210   1      9.3500000000000014      61.710000000000008       44.88000000000001
   211   1       7.480000000000004      59.840000000000011      48.620000000000012
   212   1       7.480000000000004      61.710000000000008      50.490000000000002
   213   1      9.3500000000000014      59.840000000000011      50.490000000000002
   214   1      9.3500000000000014      61.710000000000008      48.620000000000012
   215   1       7.480000000000004      59.840000000000011      52.360000000000007
   216   1       7.480000000000004      61.710000000000008      54.230000000000004
   217   1      9.3500000000000014      59.840000000000011      54.230000000000004
   218   1      9.3500000000000014      61.710000000000008      52.360000000000007
   219   1       7.480000000000004      59.840000000000011      56.100000000000009
   220   1       7.480000000000004      61.710000000000008      57.970000000000006
   221   1      9.3500000000000014      59.840000000000011      57.970000000000006
   222   1      9.3500000000000014      61.710000000000008      56.100000000000009
   223   1       7.480000000000004      59.840000000000011      59.840000000000011
   224   1       7.480000000000004      61.710000000000008      61.710000000000008
   225   1      9.3500000000000014      59.840000000000011      61.710000000000008
   226   1      9.3500000000000014      61.710000000000008      59.840000000000011
   227   1      9.3500000000000014      59.840000000000011      65.450000000000017
   228   1      9.3500000000000014      61.710000000000008      63.580000000000013
   229   1      9.3500000000000014      63.580000000000013       39.27000000000001
   230   1      9.3500000000000014      63.580000000000013      43.010000000000012
   231   1      9.3500000000000014      65.450000000000017      41.140000000000008
   232   1      9.3500000000000014      63.580000000000013      46.750000000000007
   233   1      9.3500000000000014      65.450000000000017       44.88000000000001
   234   1      9.3500000000000014      63.580000000000013      50.490000000000002
   235   1      9.3500000000000014      65.450000000000017      48.620000000000012
   236   1      9.3500000000000014      63.580000000000013      54.230000000000004
   237   1      9.3500000000000014      65.450000000000017      52.360000000000007
   238   1      9.3500000000000014      63.580000000000013      57.970000000000006
   239   1      9.3500000000000014      65.450000000000017      56.100000000000009
   240   1      9.3500000000000014      63.580000000000013      61.710000000000008
   241   1      9.3500000000000014      65.450000000000017      59.840000000000011
   242   1      9.3500000000000014      63.580000000000013      65.450000000000017
   243   1      9.3500000000000014      65.450000000000017      63.580000000000013
   244   1      13.090000000000011      35.530000000000008      37.400000000000006
   245   1      13.090000000000011      35.530000000000008      41.140000000000008
   246   1      13.090000000000011      35.530000000000008       44.88000000000001
   247   1      13.090000000000011      35.530000000000008      48.620000000000012
   248   1      13.090000000000011      35.530000000000008      52.360000000000007
   249   1      13.090000000000011      35.530000000000008      56.100000000000009
   250   1      13.090000000000011      35.530000000000008      59.840000000000011
   251   1      13.090000000000011      35.530000000000008      63.580000000000013
   252   1      13.090000000000011      35.530000000000008      67.320000000000007
   253   1      13.090000000000011      37.400000000000006      35.530000000000008
   254   1      11.220000000000008      37.400000000000006      37.400000000000006
   255   1      11.220000000000008       39.27000000000001       39.27000000000001
   256   1      13.090000000000011      37.400000000000006       39.27000000000001
   257   1      13.090000000000011       39.27000000000001      37.400000000000006
   258   1      11.220000000000008      37.400000000000006      41.140000000000008
   259   1      11.220000000000008       39.27000000000001      43.010000000000012
   260   1      13.090000000000011      37.400000000000006      43.010000000000012
   261   1      13.090000000000011       39.27000000000001      41.140000000000008
   262   1      11.220000000000008      37.400000000000006       44.88000000000001
   263   1      11.220000000000008       39.27000000000001      46.750000000000007
   264   1      13.090000000000011      37.400000000000006      46.750000000000007
   265   1      13.090000000000011       39.27000000000001       44.88000000000001
   266   1      11.220000000000008      37.400000000000006      48.620000000000012
   267   1      11.220000000000008       39.27000000000001      50.490000000000002
   268   1      13.090000000000011      37.400000000000006      50.490000000000002
   269   1      13.090000000000011       39.27000000000001      48.620000000000012
   270   1      11.220000000000008      37.400000000000006      52.360000000000007
   271   1      11.220000000000008       39.27000000000001      54.230000000000004
   272   1      13.090000000000011      37.400000000000006      54.230000000000004
   273   1      13.090000000000011       39.27000000000001      52.360000000000007
   274   1      11.220000000000008      37.400000000000006      56.100000000000009
   275   1      11.220000000000008       39.27000000000001      57.970000000000006
   276   1      13.090000000000011      37.400000000000006      57.970000000000006
   277   1      13.090000000000011       39.27000000000001      56.100000000000009
   278   1      11.220000000000008      37.400000000000006      59.840000000000011
   279   1      11.220000000000008       39.27000000000001      61.710000000000008
   280   1      13.090000000000011      37.400000000000006      61.710000000000008
   281   1      13.090000000000011       39.27000000000001      59.840000000000011
   282   1      11.220000000000008      37.400000000000006      63.580000000000013
   283   1      11.220000000000008       39.27000000000001      65.450000000000017
   284   1      13.090000000000011      37.400000000000006      65.450000000000017
   285   1      13.090000000000011       39.27000000000001      63.580000000000013
   286   1      11.220000000000008      37.400000000000006      67.320000000000007
   287   1      13.090000000000011      37.400000000000006      69.190000000000012
   288   1      13.090000000000011       39.27000000000001      67.320000000000007
   289   1      13.090000000000011      41.140000000000008      35.530000000000008
   290   1      11.220000000000008      41.140000000000008      37.400000000000006
   291   1      11.220000000000008      43.010000000000012       39.27000000000001
   292   1      13.090000000000011      41.140000000000008       39.27000000000001
   293   1      13.090000000000011      43.010000000000012      37.400000000000006
   294   1      11.220000000000008      41.140000000000008      41.140000000000008
   295   1      11.220000000000008      43.010000000000012      43.010000000000012
   296   1      13.090000000000011      41.140000000000008      43.010000000000012
   297   1      13.090000000000011      43.010000000000012      41.140000000000008
   298   1      11.220000000000008      41.140000000000008       44.88000000000001
   299   1      11.220000000000008      43.010000000000012      46.750000000000007
   300   1      13.090000000000011      41.140000000000008      46.750000000000007
   301   1      13.090000000000011      43.010000000000012       44.88000000000001
   302   1      11.220000000000008      41.140000000000008      48.620000000000012
   303   1      11.220000000000008      43.010000000000012      50.490000000000002
   304   1      13.090000000000011      41.140000000000008      50.490000000000002
   305   1      13.090000000000011      43.010000000000012      48.620000000000012
   306   1      11.220000000000008      41.140000000000008      52.360000000000007
   307   1      11.220000000000008      43.010000000000012      54.230000000000004
   308   1      13.090000000000011      41.140000000000008      54.230000000000004
   309   1      13.090000000000011      43.010000000000012      52.360000000000007
   310   1      11.220000000000008      41.140000000000008      56.100000000000009
   311   1      11.220000000000008      43.010000000000012      57.970000000000006
   312   1      13.090000000000011      41.140000000000008      57.970000000000006
   313   1      13.090000000000011      43.010000000000012      56.100000000000009
   314   1      11.220000000000008      41.140000000000008      59.840000000000011
   315   1      11.220000000000008      43.010000000000012      61.710000000000008
   316   1      13.090000000000011      41.140000000000008      61.710000000000008
   317   1      13.090000000000011      43.010000000000012      59.840000000000011
   318   1      11.220000000000008      41.140000000000008      63.580000000000013
   319   1      11.220000000000008      43.010000000000012      65.450000000000017
   320   1      13.090000000000011      41.140000000000008      65.450000000000017
   321   1      13.090000000000011      43.010000000000012      63.580000000000013
   322   1      11.220000000000008      41.140000000000008      67.320000000000007
   323   1      13.090000000000011      41.140000000000008      69.190000000000012
   324   1      13.090000000000011      43.010000000000012      67.320000000000007
   325   1      13.090000000000011       44.88000000000001      35.530000000000008
   326   1      11.220000000000008       44.88000000000001      37.400000000000006
   327   1      11.220000000000008      46.750000000000007       39.27000000000001
   328   1      13.090000000000011       44.88000000000001       39.27000000000001
   329   1      13.090000000000011      46.750000000000007      37.400000000000006
   330   1      11.220000000000008       44.88000000000001      41.140000000000008
   331   1      11.220000000000008      46.750000000000007      43.010000000000012
   332   1      13.090000000000011       44.88000000000001      43.010000000000012
   333   1      13.090000000000011      46.750000000000007      41.140000000000008
   334   1      11.220000000000008       44.88000000000001       44.88000000000001
   335   1      11.220000000000008      46.750000000000007      46.750000000000007
   336   1      13.090000000000011       44.88000000000001      46.750000000000007
   337   1      13.090000000000011      46.750000000000007       44.88000000000001
   338   1      11.220000000000008       44.88000000000001      48.620000000000012
   339   1      11.220000000000008      46.750000000000007      50.490000000000002
   340   1      13.090000000000011       44.88000000000001      50.490000000000002
   341   1      13.090000000000011      46.750000000000007      48.620000000000012
   342   1      11.220000000000008       44.88000000000001      52.360000000000007
   343   1      11.220000000000008      46.750000000000007      54.230000000000004
   344   1      13.090000000000011       44.88000000000001      54.230000000000004
   345   1      13.090000000000011      46.750000000000007      52.360000000000007
   346   1      11.220000000000008       44.88000000000001      56.100000000000009
   347   1      11.220000000000008      46.750000000000007      57.970000000000006
   348   1      13.090000000000011       44.88000000000001      57.970000000000006
   349   1      13.090000000000011      46.750000000000007      56.100000000000009
   350   1      11.220000000000008       44.88000000000001      59.840000000000011
   351   1      11.220000000000008      46.750000000000007      61.710000000000008
   352   1      13.090000000000011       44.88000000000001      61.710000000000008
   353   1      13.090000000000011      46.750000000000007      59.840000000000011
   354   1      11.220000000000008       44.88000000000001      63.580000000000013
   355   1      11.220000000000008      46.750000000000007      65.450000000000017
   356   1      13.090000000000011       44.88000000000001      65.450000000000017
   357   1      13.090000000000011      46.750000000000007      63.580000000000013
   358   1      11.220000000000008       44.88000000000001      67.320000000000007