model_files/Co/Co_3000/Co_311/data.Co_311_hcp_2863 (written by ASE) 

2863 	 atoms 
1  atom types
0.0                      29  xlo xhi
0.0                      29  ylo yhi
0.0                      29  zlo zhi


Atoms 

     1   1                       0      12.550000000000001      13.804999999999998
     2   1                       0      13.804999999999998      12.550000000000001
     3   1                       0      13.804999999999998                   15.06
     4   1                       0                   15.06      13.804999999999998
     5   1      2.5100000000000016      5.0199999999999996      13.804999999999998
     6   1      2.5100000000000016      6.2750000000000004      12.550000000000001
     7   1      2.5100000000000016      7.5300000000000011                  11.295
     8   1      2.5100000000000016      6.2750000000000004                   15.06
     9   1      2.5100000000000016      7.5300000000000011      13.804999999999998
    10   1      2.5100000000000016      7.5300000000000011      16.315000000000001
    11   1      2.5100000000000016      8.7850000000000001      10.039999999999999
    12   1      2.5100000000000016      10.039999999999999      8.7850000000000001
    13   1      1.2550000000000008      10.039999999999999      12.550000000000001
    14   1      2.5100000000000016      8.7850000000000001      12.550000000000001
    15   1      2.5100000000000016      10.039999999999999                  11.295
    16   1      1.2550000000000008      8.7850000000000001      13.804999999999998
    17   1      1.2550000000000008      10.039999999999999                   15.06
    18   1      2.5100000000000016      8.7850000000000001                   15.06
    19   1      2.5100000000000016      10.039999999999999      13.804999999999998
    20   1      2.5100000000000016      8.7850000000000001                   17.57
    21   1      2.5100000000000016      10.039999999999999      16.315000000000001
    22   1      2.5100000000000016      10.039999999999999      18.824999999999999
    23   1      2.5100000000000016                  11.295      7.5300000000000011
    24   1      2.5100000000000016      12.550000000000001      6.2750000000000004
    25   1      1.2550000000000008      12.550000000000001      10.039999999999999
    26   1      2.5100000000000016                  11.295      10.039999999999999
    27   1      2.5100000000000016      12.550000000000001      8.7850000000000001
    28   1      1.2550000000000008                  11.295                  11.295
    29   1      1.2550000000000008      12.550000000000001      12.550000000000001
    30   1      2.5100000000000016                  11.295      12.550000000000001
    31   1      2.5100000000000016      12.550000000000001                  11.295
    32   1      1.2550000000000008                  11.295      13.804999999999998
    33   1      1.2550000000000008      12.550000000000001                   15.06
    34   1      2.5100000000000016                  11.295                   15.06
    35   1      2.5100000000000016      12.550000000000001      13.804999999999998
    36   1      1.2550000000000008                  11.295      16.315000000000001
    37   1      1.2550000000000008      12.550000000000001                   17.57
    38   1      2.5100000000000016                  11.295                   17.57
    39   1      2.5100000000000016      12.550000000000001      16.315000000000001
    40   1      2.5100000000000016                  11.295      20.079999999999998
    41   1      2.5100000000000016      12.550000000000001      18.824999999999999
    42   1      2.5100000000000016      12.550000000000001      21.334999999999997
    43   1      2.5100000000000016      13.804999999999998      5.0199999999999996
    44   1      2.5100000000000016      13.804999999999998      7.5300000000000011
    45   1      2.5100000000000016                   15.06      6.2750000000000004
    46   1      1.2550000000000008      13.804999999999998      8.7850000000000001
    47   1      1.2550000000000008                   15.06      10.039999999999999
    48   1      2.5100000000000016      13.804999999999998      10.039999999999999
    49   1      2.5100000000000016                   15.06      8.7850000000000001
    50   1      1.2550000000000008      13.804999999999998                  11.295
    51   1      1.2550000000000008                   15.06      12.550000000000001
    52   1      2.5100000000000016      13.804999999999998      12.550000000000001
    53   1      2.5100000000000016                   15.06                  11.295
    54   1      1.2550000000000008      13.804999999999998      13.804999999999998
    55   1      1.2550000000000008                   15.06                   15.06
    56   1      2.5100000000000016      13.804999999999998                   15.06
    57   1      2.5100000000000016                   15.06      13.804999999999998
    58   1      1.2550000000000008      13.804999999999998      16.315000000000001
    59   1      1.2550000000000008                   15.06                   17.57
    60   1      2.5100000000000016      13.804999999999998                   17.57
    61   1      2.5100000000000016                   15.06      16.315000000000001
    62   1      1.2550000000000008      13.804999999999998      18.824999999999999
    63   1      2.5100000000000016      13.804999999999998      20.079999999999998
    64   1      2.5100000000000016                   15.06      18.824999999999999
    65   1      2.5100000000000016      13.804999999999998      22.589999999999996
    66   1      2.5100000000000016                   15.06      21.334999999999997
    67   1      2.5100000000000016      16.315000000000001      7.5300000000000011
    68   1      2.5100000000000016      16.315000000000001      10.039999999999999
    69   1      2.5100000000000016                   17.57      8.7850000000000001
    70   1      1.2550000000000008      16.315000000000001                  11.295
    71   1      1.2550000000000008                   17.57      12.550000000000001
    72   1      2.5100000000000016      16.315000000000001      12.550000000000001
    73   1      2.5100000000000016                   17.57                  11.295
    74   1      1.2550000000000008      16.315000000000001      13.804999999999998
    75   1      1.2550000000000008                   17.57                   15.06
    76   1      2.5100000000000016      16.315000000000001                   15.06
    77   1      2.5100000000000016                   17.57      13.804999999999998
    78   1      1.2550000000000008      16.315000000000001      16.315000000000001
    79   1      2.5100000000000016      16.315000000000001                   17.57
    80   1      2.5100000000000016                   17.57      16.315000000000001
    81   1      2.5100000000000016      16.315000000000001      20.079999999999998
    82   1      2.5100000000000016                   17.57      18.824999999999999
    83   1      2.5100000000000016      18.824999999999999      10.039999999999999
    84   1      2.5100000000000016      18.824999999999999      12.550000000000001
    85   1      2.5100000000000016      20.079999999999998                  11.295
    86   1      1.2550000000000008      18.824999999999999      13.804999999999998
    87   1      2.5100000000000016      18.824999999999999                   15.06
    88   1      2.5100000000000016      20.079999999999998      13.804999999999998
    89   1      2.5100000000000016      18.824999999999999                   17.57
    90   1      2.5100000000000016      20.079999999999998      16.315000000000001
    91   1      2.5100000000000016      21.334999999999997      12.550000000000001
    92   1      2.5100000000000016      21.334999999999997                   15.06
    93   1      2.5100000000000016      22.589999999999996      13.804999999999998
    94   1      5.0199999999999996      2.5100000000000016      13.804999999999998
    95   1      5.0199999999999996      5.0199999999999996      6.2750000000000004
    96   1      3.7650000000000006      5.0199999999999996      10.039999999999999
    97   1      5.0199999999999996      3.7650000000000006      10.039999999999999
    98   1      5.0199999999999996      5.0199999999999996      8.7850000000000001
    99   1      3.7650000000000006      3.7650000000000006                  11.295
   100   1      3.7650000000000006      5.0199999999999996      12.550000000000001
   101   1      5.0199999999999996      3.7650000000000006      12.550000000000001
   102   1      5.0199999999999996      5.0199999999999996                  11.295
   103   1      3.7650000000000006      3.7650000000000006      13.804999999999998
   104   1      3.7650000000000006      5.0199999999999996                   15.06
   105   1      5.0199999999999996      3.7650000000000006                   15.06
   106   1      5.0199999999999996      5.0199999999999996      13.804999999999998
   107   1      3.7650000000000006      3.7650000000000006      16.315000000000001
   108   1      3.7650000000000006      5.0199999999999996                   17.57
   109   1      5.0199999999999996      3.7650000000000006                   17.57
   110   1      5.0199999999999996      5.0199999999999996      16.315000000000001
   111   1      5.0199999999999996      5.0199999999999996      18.824999999999999
   112   1      5.0199999999999996      5.0199999999999996      21.334999999999997
   113   1      5.0199999999999996      6.2750000000000004      5.0199999999999996
   114   1      3.7650000000000006      7.5300000000000011      7.5300000000000011
   115   1      5.0199999999999996      6.2750000000000004      7.5300000000000011
   116   1      5.0199999999999996      7.5300000000000011      6.2750000000000004
   117   1      3.7650000000000006      6.2750000000000004      8.7850000000000001
   118   1      3.7650000000000006      7.5300000000000011      10.039999999999999
   119   1      5.0199999999999996      6.2750000000000004      10.039999999999999
   120   1      5.0199999999999996      7.5300000000000011      8.7850000000000001
   121   1      3.7650000000000006      6.2750000000000004                  11.295
   122   1      3.7650000000000006      7.5300000000000011      12.550000000000001
   123   1      5.0199999999999996      6.2750000000000004      12.550000000000001
   124   1      5.0199999999999996      7.5300000000000011                  11.295
   125   1      3.7650000000000006      6.2750000000000004      13.804999999999998
   126   1      3.7650000000000006      7.5300000000000011                   15.06
   127   1      5.0199999999999996      6.2750000000000004                   15.06
   128   1      5.0199999999999996      7.5300000000000011      13.804999999999998
   129   1      3.7650000000000006      6.2750000000000004      16.315000000000001
   130   1      3.7650000000000006      7.5300000000000011                   17.57
   131   1      5.0199999999999996      6.2750000000000004                   17.57
   132   1      5.0199999999999996      7.5300000000000011      16.315000000000001
   133   1      3.7650000000000006      6.2750000000000004      18.824999999999999
   134   1      3.7650000000000006      7.5300000000000011      20.079999999999998
   135   1      5.0199999999999996      6.2750000000000004      20.079999999999998
   136   1      5.0199999999999996      7.5300000000000011      18.824999999999999
   137   1      5.0199999999999996      6.2750000000000004      22.589999999999996
   138   1      5.0199999999999996      7.5300000000000011      21.334999999999997
   139   1      3.7650000000000006      10.039999999999999      5.0199999999999996
   140   1      5.0199999999999996      8.7850000000000001      5.0199999999999996
   141   1      5.0199999999999996      10.039999999999999      3.7650000000000006
   142   1      3.7650000000000006      8.7850000000000001      6.2750000000000004
   143   1      3.7650000000000006      10.039999999999999      7.5300000000000011
   144   1      5.0199999999999996      8.7850000000000001      7.5300000000000011
   145   1      5.0199999999999996      10.039999999999999      6.2750000000000004
   146   1      3.7650000000000006      8.7850000000000001      8.7850000000000001
   147   1      3.7650000000000006      10.039999999999999      10.039999999999999
   148   1      5.0199999999999996      8.7850000000000001      10.039999999999999
   149   1      5.0199999999999996      10.039999999999999      8.7850000000000001
   150   1      3.7650000000000006      8.7850000000000001                  11.295
   151   1      3.7650000000000006      10.039999999999999      12.550000000000001
   152   1      5.0199999999999996      8.7850000000000001      12.550000000000001
   153   1      5.0199999999999996      10.039999999999999                  11.295
   154   1      3.7650000000000006      8.7850000000000001      13.804999999999998
   155   1      3.7650000000000006      10.039999999999999                   15.06
   156   1      5.0199999999999996      8.7850000000000001                   15.06
   157   1      5.0199999999999996      10.039999999999999      13.804999999999998
   158   1      3.7650000000000006      8.7850000000000001      16.315000000000001
   159   1      3.7650000000000006      10.039999999999999                   17.57
   160   1      5.0199999999999996      8.7850000000000001                   17.57
   161   1      5.0199999999999996      10.039999999999999      16.315000000000001
   162   1      3.7650000000000006      8.7850000000000001      18.824999999999999
   163   1      3.7650000000000006      10.039999999999999      20.079999999999998
   164   1      5.0199999999999996      8.7850000000000001      20.079999999999998
   165   1      5.0199999999999996      10.039999999999999      18.824999999999999
   166   1      3.7650000000000006      8.7850000000000001      21.334999999999997
   167   1      3.7650000000000006      10.039999999999999      22.589999999999996
   168   1      5.0199999999999996      8.7850000000000001      22.589999999999996
   169   1      5.0199999999999996      10.039999999999999      21.334999999999997
   170   1      5.0199999999999996      10.039999999999999      23.844999999999999
   171   1      3.7650000000000006                  11.295      3.7650000000000006
   172   1      3.7650000000000006      12.550000000000001      5.0199999999999996
   173   1      5.0199999999999996                  11.295      5.0199999999999996
   174   1      5.0199999999999996      12.550000000000001      3.7650000000000006
   175   1      3.7650000000000006                  11.295      6.2750000000000004
   176   1      3.7650000000000006      12.550000000000001      7.5300000000000011
   177   1      5.0199999999999996                  11.295      7.5300000000000011
   178   1      5.0199999999999996      12.550000000000001      6.2750000000000004
   179   1      3.7650000000000006                  11.295      8.7850000000000001
   180   1      3.7650000000000006      12.550000000000001      10.039999999999999
   181   1      5.0199999999999996                  11.295      10.039999999999999
   182   1      5.0199999999999996      12.550000000000001      8.7850000000000001
   183   1      3.7650000000000006                  11.295                  11.295
   184   1      3.7650000000000006      12.550000000000001      12.550000000000001
   185   1      5.0199999999999996                  11.295      12.550000000000001
   186   1      5.0199999999999996      12.550000000000001                  11.295
   187   1      3.7650000000000006                  11.295      13.804999999999998
   188   1      3.7650000000000006      12.550000000000001                   15.06
   189   1      5.0199999999999996                  11.295                   15.06
   190   1      5.0199999999999996      12.550000000000001      13.804999999999998
   191   1      3.7650000000000006                  11.295      16.315000000000001
   192   1      3.7650000000000006      12.550000000000001                   17.57
   193   1      5.0199999999999996                  11.295                   17.57
   194   1      5.0199999999999996      12.550000000000001      16.315000000000001
   195   1      3.7650000000000006                  11.295      18.824999999999999
   196   1      3.7650000000000006      12.550000000000001      20.079999999999998
   197   1      5.0199999999999996                  11.295      20.079999999999998
   198   1      5.0199999999999996      12.550000000000001      18.824999999999999
   199   1      3.7650000000000006                  11.295      21.334999999999997
   200   1      3.7650000000000006      12.550000000000001      22.589999999999996
   201   1      5.0199999999999996                  11.295      22.589999999999996
   202   1      5.0199999999999996      12.550000000000001      21.334999999999997
   203   1      3.7650000000000006                  11.295      23.844999999999999
   204   1      5.0199999999999996      12.550000000000001      23.844999999999999
   205   1      5.0199999999999996      13.804999999999998      2.5100000000000016
   206   1      3.7650000000000006      13.804999999999998      3.7650000000000006
   207   1      3.7650000000000006                   15.06      5.0199999999999996
   208   1      5.0199999999999996      13.804999999999998      5.0199999999999996
   209   1      5.0199999999999996                   15.06      3.7650000000000006
   210   1      3.7650000000000006      13.804999999999998      6.2750000000000004
   211   1      3.7650000000000006                   15.06      7.5300000000000011
   212   1      5.0199999999999996      13.804999999999998      7.5300000000000011
   213   1      5.0199999999999996                   15.06      6.2750000000000004
   214   1      3.7650000000000006      13.804999999999998      8.7850000000000001
   215   1      3.7650000000000006                   15.06      10.039999999999999
   216   1      5.0199999999999996      13.804999999999998      10.039999999999999
   217   1      5.0199999999999996                   15.06      8.7850000000000001
   218   1      3.7650000000000006      13.804999999999998                  11.295
   219   1      3.7650000000000006                   15.06      12.550000000000001
   220   1      5.0199999999999996      13.804999999999998      12.550000000000001
   221   1      5.0199999999999996                   15.06                  11.295
   222   1      3.7650000000000006      13.804999999999998      13.804999999999998
   223   1      3.7650000000000006                   15.06                   15.06
   224   1      5.0199999999999996      13.804999999999998                   15.06
   225   1      5.0199999999999996                   15.06      13.804999999999998
   226   1      3.7650000000000006      13.804999999999998      16.315000000000001
   227   1      3.7650000000000006                   15.06                   17.57
   228   1      5.0199999999999996      13.804999999999998                   17.57
   229   1      5.0199999999999996                   15.06      16.315000000000001
   230   1      3.7650000000000006      13.804999999999998      18.824999999999999
   231   1      3.7650000000000006                   15.06      20.079999999999998
   232   1      5.0199999999999996      13.804999999999998      20.079999999999998
   233   1      5.0199999999999996                   15.06      18.824999999999999
   234   1      3.7650000000000006      13.804999999999998      21.334999999999997
   235   1      3.7650000000000006                   15.06      22.589999999999996
   236   1      5.0199999999999996      13.804999999999998      22.589999999999996
   237   1      5.0199999999999996                   15.06      21.334999999999997
   238   1      3.7650000000000006      13.804999999999998      23.844999999999999
   239   1      5.0199999999999996      13.804999999999998      25.099999999999998
   240   1      5.0199999999999996                   15.06      23.844999999999999
   241   1      3.7650000000000006      16.315000000000001      3.7650000000000006
   242   1      3.7650000000000006                   17.57      5.0199999999999996
   243   1      5.0199999999999996      16.315000000000001      5.0199999999999996
   244   1      5.0199999999999996                   17.57      3.7650000000000006
   245   1      3.7650000000000006      16.315000000000001      6.2750000000000004
   246   1      3.7650000000000006                   17.57      7.5300000000000011
   247   1      5.0199999999999996      16.315000000000001      7.5300000000000011
   248   1      5.0199999999999996                   17.57      6.2750000000000004
   249   1      3.7650000000000006      16.315000000000001      8.7850000000000001
   250   1      3.7650000000000006                   17.57      10.039999999999999
   251   1      5.0199999999999996      16.315000000000001      10.039999999999999
   252   1      5.0199999999999996                   17.57      8.7850000000000001
   253   1      3.7650000000000006      16.315000000000001                  11.295
   254   1      3.7650000000000006                   17.57      12.550000000000001
   255   1      5.0199999999999996      16.315000000000001      12.550000000000001
   256   1      5.0199999999999996                   17.57                  11.295
   257   1      3.7650000000000006      16.315000000000001      13.804999999999998
   258   1      3.7650000000000006                   17.57                   15.06
   259   1      5.0199999999999996      16.315000000000001                   15.06
   260   1      5.0199999999999996                   17.57      13.804999999999998
   261   1      3.7650000000000006      16.315000000000001      16.315000000000001
   262   1      3.7650000000000006                   17.57                   17.57
   263   1      5.0199999999999996      16.315000000000001                   17.57
   264   1      5.0199999999999996                   17.57      16.315000000000001
   265   1      3.7650000000000006      16.315000000000001      18.824999999999999
   266   1      3.7650000000000006                   17.57      20.079999999999998
   267   1      5.0199999999999996      16.315000000000001      20.079999999999998
   268   1      5.0199999999999996                   17.57      18.824999999999999
   269   1      3.7650000000000006      16.315000000000001      21.334999999999997
   270   1      3.7650000000000006                   17.57      22.589999999999996
   271   1      5.0199999999999996      16.315000000000001      22.589999999999996
   272   1      5.0199999999999996                   17.57      21.334999999999997
   273   1      3.7650000000000006      16.315000000000001      23.844999999999999
   274   1      5.0199999999999996                   17.57      23.844999999999999
   275   1      5.0199999999999996      18.824999999999999      5.0199999999999996
   276   1      3.7650000000000006      18.824999999999999      6.2750000000000004
   277   1      3.7650000000000006      20.079999999999998      7.5300000000000011
   278   1      5.0199999999999996      18.824999999999999      7.5300000000000011
   279   1      5.0199999999999996      20.079999999999998      6.2750000000000004
   280   1      3.7650000000000006      18.824999999999999      8.7850000000000001
   281   1      3.7650000000000006      20.079999999999998      10.039999999999999
   282   1      5.0199999999999996      18.824999999999999      10.039999999999999
   283   1      5.0199999999999996      20.079999999999998      8.7850000000000001
   284   1      3.7650000000000006      18.824999999999999                  11.295
   285   1      3.7650000000000006      20.079999999999998      12.550000000000001
   286   1      5.0199999999999996      18.824999999999999      12.550000000000001
   287   1      5.0199999999999996      20.079999999999998                  11.295
   288   1      3.7650000000000006      18.824999999999999      13.804999999999998
   289   1      3.7650000000000006      20.079999999999998                   15.06
   290   1      5.0199999999999996      18.824999999999999                   15.06
   291   1      5.0199999999999996      20.079999999999998      13.804999999999998
   292   1      3.7650000000000006      18.824999999999999      16.315000000000001
   293   1      3.7650000000000006      20.079999999999998                   17.57
   294   1      5.0199999999999996      18.824999999999999                   17.57
   295   1      5.0199999999999996      20.079999999999998      16.315000000000001
   296   1      3.7650000000000006      18.824999999999999      18.824999999999999
   297   1      3.7650000000000006      20.079999999999998      20.079999999999998
   298   1      5.0199999999999996      18.824999999999999      20.079999999999998
   299   1      5.0199999999999996      20.079999999999998      18.824999999999999
   300   1      3.7650000000000006      18.824999999999999      21.334999999999997
   301   1      5.0199999999999996      18.824999999999999      22.589999999999996
   302   1      5.0199999999999996      20.079999999999998      21.334999999999997
   303   1      5.0199999999999996      21.334999999999997      5.0199999999999996
   304   1      5.0199999999999996      21.334999999999997      7.5300000000000011
   305   1      5.0199999999999996      22.589999999999996      6.2750000000000004
   306   1      3.7650000000000006      21.334999999999997      8.7850000000000001
   307   1      3.7650000000000006      22.589999999999996      10.039999999999999
   308   1      5.0199999999999996      21.334999999999997      10.039999999999999
   309   1      5.0199999999999996      22.589999999999996      8.7850000000000001
   310   1      3.7650000000000006      21.334999999999997                  11.295
   311   1      3.7650000000000006      22.589999999999996      12.550000000000001
   312   1      5.0199999999999996      21.334999999999997      12.550000000000001
   313   1      5.0199999999999996      22.589999999999996                  11.295
   314   1      3.7650000000000006      21.334999999999997      13.804999999999998
   315   1      3.7650000000000006      22.589999999999996                   15.06
   316   1      5.0199999999999996      21.334999999999997                   15.06
   317   1      5.0199999999999996      22.589999999999996      13.804999999999998
   318   1      3.7650000000000006      21.334999999999997      16.315000000000001
   319   1      3.7650000000000006      22.589999999999996                   17.57
   320   1      5.0199999999999996      21.334999999999997                   17.57
   321   1      5.0199999999999996      22.589999999999996      16.315000000000001
   322   1      3.7650000000000006      21.334999999999997      18.824999999999999
   323   1      5.0199999999999996      21.334999999999997      20.079999999999998
   324   1      5.0199999999999996      22.589999999999996      18.824999999999999
   325   1      5.0199999999999996      21.334999999999997      22.589999999999996
   326   1      5.0199999999999996      22.589999999999996      21.334999999999997
   327   1      5.0199999999999996      23.844999999999999      10.039999999999999
   328   1      3.7650000000000006      23.844999999999999                  11.295
   329   1      5.0199999999999996      23.844999999999999      12.550000000000001
   330   1      3.7650000000000006      23.844999999999999      13.804999999999998
   331   1      5.0199999999999996      23.844999999999999                   15.06
   332   1      5.0199999999999996      25.099999999999998      13.804999999999998
   333   1      3.7650000000000006      23.844999999999999      16.315000000000001
   334   1      5.0199999999999996      23.844999999999999                   17.57
   335   1      6.2750000000000004      2.5100000000000016      12.550000000000001
   336   1      7.5300000000000011      2.5100000000000016                  11.295
   337   1      6.2750000000000004      2.5100000000000016                   15.06
   338   1      7.5300000000000011      2.5100000000000016      13.804999999999998
   339   1      7.5300000000000011      2.5100000000000016      16.315000000000001
   340   1      6.2750000000000004      5.0199999999999996      5.0199999999999996
   341   1      6.2750000000000004      5.0199999999999996      7.5300000000000011
   342   1      7.5300000000000011      3.7650000000000006      7.5300000000000011
   343   1      7.5300000000000011      5.0199999999999996      6.2750000000000004
   344   1      6.2750000000000004      3.7650000000000006      8.7850000000000001
   345   1      6.2750000000000004      5.0199999999999996      10.039999999999999
   346   1      7.5300000000000011      3.7650000000000006      10.039999999999999
   347   1      7.5300000000000011      5.0199999999999996      8.7850000000000001
   348   1      6.2750000000000004      3.7650000000000006                  11.295
   349   1      6.2750000000000004      5.0199999999999996      12.550000000000001
   350   1      7.5300000000000011      3.7650000000000006      12.550000000000001
   351   1      7.5300000000000011      5.0199999999999996                  11.295
   352   1      6.2750000000000004      3.7650000000000006      13.804999999999998
   353   1      6.2750000000000004      5.0199999999999996                   15.06
   354   1      7.5300000000000011      3.7650000000000006                   15.06
   355   1      7.5300000000000011      5.0199999999999996      13.804999999999998
   356   1      6.2750000000000004      3.7650000000000006      16.315000000000001
   357   1      6.2750000000000004      5.0199999999999996                   17.57
   358   1      7.5300000000000011      3.7650000000000006                   17.57