model_files/PdCu/PdCu_30000/PdCu_321/PdCu_321_fcc_29817_temp.data (written by ASE) 

29817 	 atoms 
2  atom types
0.0                     107  xlo xhi
0.0                     107  ylo yhi
0.0                     107  zlo zhi


Atoms 

     1   1      1.8874999999999955      47.187499999999986      52.849999999999994
     2   1      106.99999999999999      50.962499999999999      50.962499999999999
     3   1      1.8874999999999955      49.074999999999996      50.962499999999999
     4   1      1.8874999999999955      50.962499999999999      49.074999999999996
     5   1      106.99999999999999      50.962499999999999      54.737499999999997
     6   1      1.8874999999999955      49.074999999999996      54.737499999999997
     7   1      1.8874999999999955      50.962499999999999      52.849999999999994
     8   1      1.8874999999999955      50.962499999999999      56.624999999999986
     9   1      1.8874999999999955      52.849999999999994      47.187499999999986
    10   1      106.99999999999999      54.737499999999997      50.962499999999999
    11   1      1.8874999999999955      52.849999999999994      50.962499999999999
    12   1      1.8874999999999955      54.737499999999997      49.074999999999996
    13   1      106.99999999999999      52.849999999999994      52.849999999999994
    14   1      106.99999999999999      54.737499999999997      54.737499999999997
    15   1      1.8874999999999955      52.849999999999994      54.737499999999997
    16   1      1.8874999999999955      54.737499999999997      52.849999999999994
    17   1      1.8874999999999955      52.849999999999994      58.512499999999989
    18   1      1.8874999999999955      54.737499999999997      56.624999999999986
    19   1      1.8874999999999955      56.624999999999986      50.962499999999999
    20   1      1.8874999999999955      56.624999999999986      54.737499999999997
    21   1      1.8874999999999955      58.512499999999989      52.849999999999994
    22   1      5.6624999999999934      43.412499999999987      49.074999999999996
    23   1      5.6624999999999934      43.412499999999987      52.849999999999994
    24   1      5.6624999999999934      43.412499999999987      56.624999999999986
    25   1       3.774999999999991      47.187499999999986      47.187499999999986
    26   1      5.6624999999999934      45.299999999999983      47.187499999999986
    27   1      5.6624999999999934      47.187499999999986      45.299999999999983
    28   1       3.774999999999991      47.187499999999986      50.962499999999999
    29   1      5.6624999999999934      45.299999999999983      50.962499999999999
    30   1      5.6624999999999934      47.187499999999986      49.074999999999996
    31   1       3.774999999999991      45.299999999999983      52.849999999999994
    32   1       3.774999999999991      47.187499999999986      54.737499999999997
    33   1      5.6624999999999934      45.299999999999983      54.737499999999997
    34   1      5.6624999999999934      47.187499999999986      52.849999999999994
    35   1       3.774999999999991      47.187499999999986      58.512499999999989
    36   1      5.6624999999999934      45.299999999999983      58.512499999999989
    37   1      5.6624999999999934      47.187499999999986      56.624999999999986
    38   1      5.6624999999999934      47.187499999999986      60.399999999999984
    39   1      5.6624999999999934      49.074999999999996      43.412499999999987
    40   1       3.774999999999991      50.962499999999999      47.187499999999986
    41   1      5.6624999999999934      49.074999999999996      47.187499999999986
    42   1      5.6624999999999934      50.962499999999999      45.299999999999983
    43   1       3.774999999999991      49.074999999999996      49.074999999999996
    44   1       3.774999999999991      50.962499999999999      50.962499999999999
    45   1      5.6624999999999934      49.074999999999996      50.962499999999999
    46   1      5.6624999999999934      50.962499999999999      49.074999999999996
    47   1       3.774999999999991      49.074999999999996      52.849999999999994
    48   1       3.774999999999991      50.962499999999999      54.737499999999997
    49   1      5.6624999999999934      49.074999999999996      54.737499999999997
    50   1      5.6624999999999934      50.962499999999999      52.849999999999994
    51   1       3.774999999999991      49.074999999999996      56.624999999999986
    52   1       3.774999999999991      50.962499999999999      58.512499999999989
    53   1      5.6624999999999934      49.074999999999996      58.512499999999989
    54   1      5.6624999999999934      50.962499999999999      56.624999999999986
    55   1      5.6624999999999934      49.074999999999996      62.287499999999987
    56   1      5.6624999999999934      50.962499999999999      60.399999999999984
    57   1      5.6624999999999934      52.849999999999994      43.412499999999987
    58   1       3.774999999999991      52.849999999999994      45.299999999999983
    59   1       3.774999999999991      54.737499999999997      47.187499999999986
    60   1      5.6624999999999934      52.849999999999994      47.187499999999986
    61   1      5.6624999999999934      54.737499999999997      45.299999999999983
    62   1       3.774999999999991      52.849999999999994      49.074999999999996
    63   1       3.774999999999991      54.737499999999997      50.962499999999999
    64   1      5.6624999999999934      52.849999999999994      50.962499999999999
    65   1      5.6624999999999934      54.737499999999997      49.074999999999996
    66   1       3.774999999999991      52.849999999999994      52.849999999999994
    67   1       3.774999999999991      54.737499999999997      54.737499999999997
    68   1      5.6624999999999934      52.849999999999994      54.737499999999997
    69   1      5.6624999999999934      54.737499999999997      52.849999999999994
    70   1       3.774999999999991      52.849999999999994      56.624999999999986
    71   1       3.774999999999991      54.737499999999997      58.512499999999989
    72   1      5.6624999999999934      52.849999999999994      58.512499999999989
    73   1      5.6624999999999934      54.737499999999997      56.624999999999986
    74   1       3.774999999999991      52.849999999999994      60.399999999999984
    75   1      5.6624999999999934      52.849999999999994      62.287499999999987
    76   1      5.6624999999999934      54.737499999999997      60.399999999999984
    77   1      5.6624999999999934      56.624999999999986      43.412499999999987
    78   1       3.774999999999991      58.512499999999989      47.187499999999986
    79   1      5.6624999999999934      56.624999999999986      47.187499999999986
    80   1      5.6624999999999934      58.512499999999989      45.299999999999983
    81   1       3.774999999999991      56.624999999999986      49.074999999999996
    82   1       3.774999999999991      58.512499999999989      50.962499999999999
    83   1      5.6624999999999934      56.624999999999986      50.962499999999999
    84   1      5.6624999999999934      58.512499999999989      49.074999999999996
    85   1       3.774999999999991      56.624999999999986      52.849999999999994
    86   1       3.774999999999991      58.512499999999989      54.737499999999997
    87   1      5.6624999999999934      56.624999999999986      54.737499999999997
    88   1      5.6624999999999934      58.512499999999989      52.849999999999994
    89   1       3.774999999999991      56.624999999999986      56.624999999999986
    90   1       3.774999999999991      58.512499999999989      58.512499999999989
    91   1      5.6624999999999934      56.624999999999986      58.512499999999989
    92   1      5.6624999999999934      58.512499999999989      56.624999999999986
    93   1      5.6624999999999934      56.624999999999986      62.287499999999987
    94   1      5.6624999999999934      58.512499999999989      60.399999999999984
    95   1      5.6624999999999934      60.399999999999984      47.187499999999986
    96   1      5.6624999999999934      60.399999999999984      50.962499999999999
    97   1      5.6624999999999934      62.287499999999987      49.074999999999996
    98   1       3.774999999999991      60.399999999999984      52.849999999999994
    99   1      5.6624999999999934      60.399999999999984      54.737499999999997
   100   1      5.6624999999999934      62.287499999999987      52.849999999999994
   101   1      5.6624999999999934      60.399999999999984      58.512499999999989
   102   1      5.6624999999999934      62.287499999999987      56.624999999999986
   103   1      9.4374999999999929       35.86249999999999      52.849999999999994
   104   1      9.4374999999999929      39.637499999999989      45.299999999999983
   105   1      7.5499999999999972      39.637499999999989      50.962499999999999
   106   1      9.4374999999999929      37.749999999999986      50.962499999999999
   107   1      9.4374999999999929      39.637499999999989      49.074999999999996
   108   1      7.5499999999999972      39.637499999999989      54.737499999999997
   109   1      9.4374999999999929      37.749999999999986      54.737499999999997
   110   1      9.4374999999999929      39.637499999999989      52.849999999999994
   111   1      9.4374999999999929      39.637499999999989      56.624999999999986
   112   1      9.4374999999999929      39.637499999999989      60.399999999999984
   113   1      7.5499999999999972      43.412499999999987      43.412499999999987
   114   1      9.4374999999999929      41.524999999999984      43.412499999999987
   115   1      9.4374999999999929      43.412499999999987      41.524999999999984
   116   1      7.5499999999999972      43.412499999999987      47.187499999999986
   117   1      9.4374999999999929      41.524999999999984      47.187499999999986
   118   1      9.4374999999999929      43.412499999999987      45.299999999999983
   119   1      7.5499999999999972      41.524999999999984      49.074999999999996
   120   1      7.5499999999999972      43.412499999999987      50.962499999999999
   121   1      9.4374999999999929      41.524999999999984      50.962499999999999
   122   1      9.4374999999999929      43.412499999999987      49.074999999999996
   123   1      7.5499999999999972      41.524999999999984      52.849999999999994
   124   1      7.5499999999999972      43.412499999999987      54.737499999999997
   125   1      9.4374999999999929      41.524999999999984      54.737499999999997
   126   1      9.4374999999999929      43.412499999999987      52.849999999999994
   127   1      7.5499999999999972      41.524999999999984      56.624999999999986
   128   1      7.5499999999999972      43.412499999999987      58.512499999999989
   129   1      9.4374999999999929      41.524999999999984      58.512499999999989
   130   1      9.4374999999999929      43.412499999999987      56.624999999999986
   131   1      7.5499999999999972      43.412499999999987      62.287499999999987
   132   1      9.4374999999999929      41.524999999999984      62.287499999999987
   133   1      9.4374999999999929      43.412499999999987      60.399999999999984
   134   1      9.4374999999999929      43.412499999999987      64.174999999999997
   135   1      9.4374999999999929      45.299999999999983      39.637499999999989
   136   1      7.5499999999999972      47.187499999999986      43.412499999999987
   137   1      9.4374999999999929      45.299999999999983      43.412499999999987
   138   1      9.4374999999999929      47.187499999999986      41.524999999999984
   139   1      7.5499999999999972      45.299999999999983      45.299999999999983
   140   1      7.5499999999999972      47.187499999999986      47.187499999999986
   141   1      9.4374999999999929      45.299999999999983      47.187499999999986
   142   1      9.4374999999999929      47.187499999999986      45.299999999999983
   143   1      7.5499999999999972      45.299999999999983      49.074999999999996
   144   1      7.5499999999999972      47.187499999999986      50.962499999999999
   145   1      9.4374999999999929      45.299999999999983      50.962499999999999
   146   1      9.4374999999999929      47.187499999999986      49.074999999999996
   147   1      7.5499999999999972      45.299999999999983      52.849999999999994
   148   1      7.5499999999999972      47.187499999999986      54.737499999999997
   149   1      9.4374999999999929      45.299999999999983      54.737499999999997
   150   1      9.4374999999999929      47.187499999999986      52.849999999999994
   151   1      7.5499999999999972      45.299999999999983      56.624999999999986
   152   1      7.5499999999999972      47.187499999999986      58.512499999999989
   153   1      9.4374999999999929      45.299999999999983      58.512499999999989
   154   1      9.4374999999999929      47.187499999999986      56.624999999999986
   155   1      7.5499999999999972      45.299999999999983      60.399999999999984
   156   1      7.5499999999999972      47.187499999999986      62.287499999999987
   157   1      9.4374999999999929      45.299999999999983      62.287499999999987
   158   1      9.4374999999999929      47.187499999999986      60.399999999999984
   159   1      9.4374999999999929      45.299999999999983                 66.0625
   160   1      9.4374999999999929      47.187499999999986      64.174999999999997
   161   1      7.5499999999999972      50.962499999999999      39.637499999999989
   162   1      9.4374999999999929      49.074999999999996      39.637499999999989
   163   1      9.4374999999999929      50.962499999999999      37.749999999999986
   164   1      7.5499999999999972      49.074999999999996      41.524999999999984
   165   1      7.5499999999999972      50.962499999999999      43.412499999999987
   166   1      9.4374999999999929      49.074999999999996      43.412499999999987
   167   1      9.4374999999999929      50.962499999999999      41.524999999999984
   168   1      7.5499999999999972      49.074999999999996      45.299999999999983
   169   1      7.5499999999999972      50.962499999999999      47.187499999999986
   170   1      9.4374999999999929      49.074999999999996      47.187499999999986
   171   1      9.4374999999999929      50.962499999999999      45.299999999999983
   172   1      7.5499999999999972      49.074999999999996      49.074999999999996
   173   1      7.5499999999999972      50.962499999999999      50.962499999999999
   174   1      9.4374999999999929      49.074999999999996      50.962499999999999
   175   1      9.4374999999999929      50.962499999999999      49.074999999999996
   176   1      7.5499999999999972      49.074999999999996      52.849999999999994
   177   1      7.5499999999999972      50.962499999999999      54.737499999999997
   178   1      9.4374999999999929      49.074999999999996      54.737499999999997
   179   1      9.4374999999999929      50.962499999999999      52.849999999999994
   180   1      7.5499999999999972      49.074999999999996      56.624999999999986
   181   1      7.5499999999999972      50.962499999999999      58.512499999999989
   182   1      9.4374999999999929      49.074999999999996      58.512499999999989
   183   1      9.4374999999999929      50.962499999999999      56.624999999999986
   184   1      7.5499999999999972      49.074999999999996      60.399999999999984
   185   1      7.5499999999999972      50.962499999999999      62.287499999999987
   186   1      9.4374999999999929      49.074999999999996      62.287499999999987
   187   1      9.4374999999999929      50.962499999999999      60.399999999999984
   188   1      7.5499999999999972      49.074999999999996      64.174999999999997
   189   1      7.5499999999999972      50.962499999999999                 66.0625
   190   1      9.4374999999999929      49.074999999999996                 66.0625
   191   1      9.4374999999999929      50.962499999999999      64.174999999999997
   192   1      9.4374999999999929      50.962499999999999      67.949999999999989
   193   1      9.4374999999999929      52.849999999999994       35.86249999999999
   194   1      7.5499999999999972      54.737499999999997      39.637499999999989
   195   1      9.4374999999999929      52.849999999999994      39.637499999999989
   196   1      9.4374999999999929      54.737499999999997      37.749999999999986
   197   1      7.5499999999999972      52.849999999999994      41.524999999999984
   198   1      7.5499999999999972      54.737499999999997      43.412499999999987
   199   1      9.4374999999999929      52.849999999999994      43.412499999999987
   200   1      9.4374999999999929      54.737499999999997      41.524999999999984
   201   1      7.5499999999999972      52.849999999999994      45.299999999999983
   202   1      7.5499999999999972      54.737499999999997      47.187499999999986
   203   1      9.4374999999999929      52.849999999999994      47.187499999999986
   204   1      9.4374999999999929      54.737499999999997      45.299999999999983
   205   1      7.5499999999999972      52.849999999999994      49.074999999999996
   206   1      7.5499999999999972      54.737499999999997      50.962499999999999
   207   1      9.4374999999999929      52.849999999999994      50.962499999999999
   208   1      9.4374999999999929      54.737499999999997      49.074999999999996
   209   1      7.5499999999999972      52.849999999999994      52.849999999999994
   210   1      7.5499999999999972      54.737499999999997      54.737499999999997
   211   1      9.4374999999999929      52.849999999999994      54.737499999999997
   212   1      9.4374999999999929      54.737499999999997      52.849999999999994
   213   1      7.5499999999999972      52.849999999999994      56.624999999999986
   214   1      7.5499999999999972      54.737499999999997      58.512499999999989
   215   1      9.4374999999999929      52.849999999999994      58.512499999999989
   216   1      9.4374999999999929      54.737499999999997      56.624999999999986
   217   1      7.5499999999999972      52.849999999999994      60.399999999999984
   218   1      7.5499999999999972      54.737499999999997      62.287499999999987
   219   1      9.4374999999999929      52.849999999999994      62.287499999999987
   220   1      9.4374999999999929      54.737499999999997      60.399999999999984
   221   1      7.5499999999999972      52.849999999999994      64.174999999999997
   222   1      7.5499999999999972      54.737499999999997                 66.0625
   223   1      9.4374999999999929      52.849999999999994                 66.0625
   224   1      9.4374999999999929      54.737499999999997      64.174999999999997
   225   1      9.4374999999999929      52.849999999999994      69.837499999999991
   226   1      9.4374999999999929      54.737499999999997      67.949999999999989
   227   1      9.4374999999999929      56.624999999999986      39.637499999999989
   228   1      7.5499999999999972      56.624999999999986      41.524999999999984
   229   1      7.5499999999999972      58.512499999999989      43.412499999999987
   230   1      9.4374999999999929      56.624999999999986      43.412499999999987
   231   1      9.4374999999999929      58.512499999999989      41.524999999999984
   232   1      7.5499999999999972      56.624999999999986      45.299999999999983
   233   1      7.5499999999999972      58.512499999999989      47.187499999999986
   234   1      9.4374999999999929      56.624999999999986      47.187499999999986
   235   1      9.4374999999999929      58.512499999999989      45.299999999999983
   236   1      7.5499999999999972      56.624999999999986      49.074999999999996
   237   1      7.5499999999999972      58.512499999999989      50.962499999999999
   238   1      9.4374999999999929      56.624999999999986      50.962499999999999
   239   1      9.4374999999999929      58.512499999999989      49.074999999999996
   240   1      7.5499999999999972      56.624999999999986      52.849999999999994
   241   1      7.5499999999999972      58.512499999999989      54.737499999999997
   242   1      9.4374999999999929      56.624999999999986      54.737499999999997
   243   1      9.4374999999999929      58.512499999999989      52.849999999999994
   244   1      7.5499999999999972      56.624999999999986      56.624999999999986
   245   1      7.5499999999999972      58.512499999999989      58.512499999999989
   246   1      9.4374999999999929      56.624999999999986      58.512499999999989
   247   1      9.4374999999999929      58.512499999999989      56.624999999999986
   248   1      7.5499999999999972      56.624999999999986      60.399999999999984
   249   1      7.5499999999999972      58.512499999999989      62.287499999999987
   250   1      9.4374999999999929      56.624999999999986      62.287499999999987
   251   1      9.4374999999999929      58.512499999999989      60.399999999999984
   252   1      7.5499999999999972      56.624999999999986      64.174999999999997
   253   1      9.4374999999999929      56.624999999999986                 66.0625
   254   1      9.4374999999999929      58.512499999999989      64.174999999999997
   255   1      9.4374999999999929      60.399999999999984      39.637499999999989
   256   1      7.5499999999999972      62.287499999999987      43.412499999999987
   257   1      9.4374999999999929      60.399999999999984      43.412499999999987
   258   1      9.4374999999999929      62.287499999999987      41.524999999999984
   259   1      7.5499999999999972      60.399999999999984      45.299999999999983
   260   1      7.5499999999999972      62.287499999999987      47.187499999999986
   261   1      9.4374999999999929      60.399999999999984      47.187499999999986
   262   1      9.4374999999999929      62.287499999999987      45.299999999999983
   263   1      7.5499999999999972      60.399999999999984      49.074999999999996
   264   1      7.5499999999999972      62.287499999999987      50.962499999999999
   265   1      9.4374999999999929      60.399999999999984      50.962499999999999
   266   1      9.4374999999999929      62.287499999999987      49.074999999999996
   267   1      7.5499999999999972      60.399999999999984      52.849999999999994
   268   1      7.5499999999999972      62.287499999999987      54.737499999999997
   269   1      9.4374999999999929      60.399999999999984      54.737499999999997
   270   1      9.4374999999999929      62.287499999999987      52.849999999999994
   271   1      7.5499999999999972      60.399999999999984      56.624999999999986
   272   1      7.5499999999999972      62.287499999999987      58.512499999999989
   273   1      9.4374999999999929      60.399999999999984      58.512499999999989
   274   1      9.4374999999999929      62.287499999999987      56.624999999999986
   275   1      7.5499999999999972      60.399999999999984      60.399999999999984
   276   1      7.5499999999999972      62.287499999999987      62.287499999999987
   277   1      9.4374999999999929      60.399999999999984      62.287499999999987
   278   1      9.4374999999999929      62.287499999999987      60.399999999999984
   279   1      9.4374999999999929      60.399999999999984                 66.0625
   280   1      9.4374999999999929      62.287499999999987      64.174999999999997
   281   1      9.4374999999999929      64.174999999999997      43.412499999999987
   282   1      9.4374999999999929      64.174999999999997      47.187499999999986
   283   1      9.4374999999999929                 66.0625      45.299999999999983
   284   1      7.5499999999999972      64.174999999999997      49.074999999999996
   285   1      7.5499999999999972                 66.0625      50.962499999999999
   286   1      9.4374999999999929      64.174999999999997      50.962499999999999
   287   1      9.4374999999999929                 66.0625      49.074999999999996
   288   1      7.5499999999999972      64.174999999999997      52.849999999999994
   289   1      7.5499999999999972                 66.0625      54.737499999999997
   290   1      9.4374999999999929      64.174999999999997      54.737499999999997
   291   1      9.4374999999999929                 66.0625      52.849999999999994
   292   1      7.5499999999999972      64.174999999999997      56.624999999999986
   293   1      9.4374999999999929      64.174999999999997      58.512499999999989
   294   1      9.4374999999999929                 66.0625      56.624999999999986
   295   1      9.4374999999999929      64.174999999999997      62.287499999999987
   296   1      9.4374999999999929                 66.0625      60.399999999999984
   297   1      9.4374999999999929      67.949999999999989      50.962499999999999
   298   1      9.4374999999999929      67.949999999999989      54.737499999999997
   299   1      9.4374999999999929      69.837499999999991      52.849999999999994
   300   1      13.212499999999991      32.087499999999999      49.074999999999996
   301   1      13.212499999999991      32.087499999999999      52.849999999999994
   302   1      13.212499999999991      32.087499999999999      56.624999999999986
   303   1      13.212499999999991       35.86249999999999      41.524999999999984
   304   1      11.324999999999994       35.86249999999999      47.187499999999986
   305   1      13.212499999999991      33.974999999999994      47.187499999999986
   306   1      13.212499999999991       35.86249999999999      45.299999999999983
   307   1      11.324999999999994       35.86249999999999      50.962499999999999
   308   1      13.212499999999991      33.974999999999994      50.962499999999999
   309   1      13.212499999999991       35.86249999999999      49.074999999999996
   310   1      11.324999999999994      33.974999999999994      52.849999999999994
   311   1      11.324999999999994       35.86249999999999      54.737499999999997
   312   1      13.212499999999991      33.974999999999994      54.737499999999997
   313   1      13.212499999999991       35.86249999999999      52.849999999999994
   314   1      11.324999999999994       35.86249999999999      58.512499999999989
   315   1      13.212499999999991      33.974999999999994      58.512499999999989
   316   1      13.212499999999991       35.86249999999999      56.624999999999986
   317   1      13.212499999999991       35.86249999999999      60.399999999999984
   318   1      13.212499999999991       35.86249999999999      64.174999999999997
   319   1      11.324999999999994      39.637499999999989      39.637499999999989
   320   1      13.212499999999991      37.749999999999986      39.637499999999989
   321   1      13.212499999999991      39.637499999999989      37.749999999999986
   322   1      11.324999999999994      39.637499999999989      43.412499999999987
   323   1      13.212499999999991      37.749999999999986      43.412499999999987
   324   1      13.212499999999991      39.637499999999989      41.524999999999984
   325   1      11.324999999999994      37.749999999999986      45.299999999999983
   326   1      11.324999999999994      39.637499999999989      47.187499999999986
   327   1      13.212499999999991      37.749999999999986      47.187499999999986
   328   1      13.212499999999991      39.637499999999989      45.299999999999983
   329   1      11.324999999999994      37.749999999999986      49.074999999999996
   330   1      11.324999999999994      39.637499999999989      50.962499999999999
   331   1      13.212499999999991      37.749999999999986      50.962499999999999
   332   1      13.212499999999991      39.637499999999989      49.074999999999996
   333   1      11.324999999999994      37.749999999999986      52.849999999999994
   334   1      11.324999999999994      39.637499999999989      54.737499999999997
   335   1      13.212499999999991      37.749999999999986      54.737499999999997
   336   1      13.212499999999991      39.637499999999989      52.849999999999994
   337   1      11.324999999999994      37.749999999999986      56.624999999999986
   338   1      11.324999999999994      39.637499999999989      58.512499999999989
   339   1      13.212499999999991      37.749999999999986      58.512499999999989
   340   1      13.212499999999991      39.637499999999989      56.624999999999986
   341   1      11.324999999999994      37.749999999999986      60.399999999999984
   342   1      11.324999999999994      39.637499999999989      62.287499999999987
   343   1      13.212499999999991      37.749999999999986      62.287499999999987
   344   1      13.212499999999991      39.637499999999989      60.399999999999984
   345   1      11.324999999999994      39.637499999999989                 66.0625
   346   1      13.212499999999991      37.749999999999986                 66.0625
   347   1      13.212499999999991      39.637499999999989      64.174999999999997
   348   1      13.212499999999991      39.637499999999989      67.949999999999989
   349   1      13.212499999999991      41.524999999999984       35.86249999999999
   350   1      11.324999999999994      43.412499999999987      39.637499999999989
   351   1      13.212499999999991      41.524999999999984      39.637499999999989
   352   1      13.212499999999991      43.412499999999987      37.749999999999986
   353   1      11.324999999999994      41.524999999999984      41.524999999999984
   354   1      11.324999999999994      43.412499999999987      43.412499999999987
   355   1      13.212499999999991      41.524999999999984      43.412499999999987
   356   1      13.212499999999991      43.412499999999987      41.524999999999984
   357   1      11.324999999999994      41.524999999999984      45.299999999999983
   358   1      11.324999999999994      43.412499999999987      47.187499999999986