model_files/Fe/Fe_30000/Fe_421/data.Fe_421_bcc_30423 (written by ASE) 

30423 	 atoms 
1  atom types
0.0                      74  xlo xhi
0.0                      74  ylo yhi
0.0                      74  zlo zhi


Atoms 

     1   1      1.4350000000000094       33.00500000000001      34.440000000000005
     2   1      1.4350000000000094       33.00500000000001      37.310000000000002
     3   1      1.4350000000000094       33.00500000000001      40.180000000000007
     4   1      1.4350000000000094      34.440000000000005       33.00500000000001
     5   1  7.1054273576010019e-15      35.875000000000007      35.875000000000007
     6   1      1.4350000000000094      34.440000000000005      35.875000000000007
     7   1      1.4350000000000094      35.875000000000007      34.440000000000005
     8   1  7.1054273576010019e-15      34.440000000000005      37.310000000000002
     9   1  7.1054273576010019e-15      35.875000000000007      38.745000000000005
    10   1      1.4350000000000094      34.440000000000005      38.745000000000005
    11   1      1.4350000000000094      35.875000000000007      37.310000000000002
    12   1      1.4350000000000094      34.440000000000005      41.615000000000009
    13   1      1.4350000000000094      35.875000000000007      40.180000000000007
    14   1      1.4350000000000094      37.310000000000002       33.00500000000001
    15   1  7.1054273576010019e-15      37.310000000000002      34.440000000000005
    16   1  7.1054273576010019e-15      38.745000000000005      35.875000000000007
    17   1      1.4350000000000094      37.310000000000002      35.875000000000007
    18   1      1.4350000000000094      38.745000000000005      34.440000000000005
    19   1  7.1054273576010019e-15      37.310000000000002      37.310000000000002
    20   1  7.1054273576010019e-15      38.745000000000005      38.745000000000005
    21   1      1.4350000000000094      37.310000000000002      38.745000000000005
    22   1      1.4350000000000094      38.745000000000005      37.310000000000002
    23   1  7.1054273576010019e-15      37.310000000000002      40.180000000000007
    24   1      1.4350000000000094      37.310000000000002      41.615000000000009
    25   1      1.4350000000000094      38.745000000000005      40.180000000000007
    26   1      1.4350000000000094      40.180000000000007       33.00500000000001
    27   1      1.4350000000000094      40.180000000000007      35.875000000000007
    28   1      1.4350000000000094      41.615000000000009      34.440000000000005
    29   1  7.1054273576010019e-15      40.180000000000007      37.310000000000002
    30   1      1.4350000000000094      40.180000000000007      38.745000000000005
    31   1      1.4350000000000094      41.615000000000009      37.310000000000002
    32   1      1.4350000000000094      40.180000000000007      41.615000000000009
    33   1      1.4350000000000094      41.615000000000009      40.180000000000007
    34   1      4.3050000000000068      27.265000000000008      34.440000000000005
    35   1      4.3050000000000068      27.265000000000008      37.310000000000002
    36   1      4.3050000000000068      27.265000000000008      40.180000000000007
    37   1      4.3050000000000068      28.700000000000006       33.00500000000001
    38   1      4.3050000000000068      30.135000000000005      31.570000000000011
    39   1      2.8700000000000117      30.135000000000005      35.875000000000007
    40   1      4.3050000000000068      28.700000000000006      35.875000000000007
    41   1      4.3050000000000068      30.135000000000005      34.440000000000005
    42   1      2.8700000000000117      28.700000000000006      37.310000000000002
    43   1      2.8700000000000117      30.135000000000005      38.745000000000005
    44   1      4.3050000000000068      28.700000000000006      38.745000000000005
    45   1      4.3050000000000068      30.135000000000005      37.310000000000002
    46   1      4.3050000000000068      28.700000000000006      41.615000000000009
    47   1      4.3050000000000068      30.135000000000005      40.180000000000007
    48   1      4.3050000000000068      30.135000000000005      43.050000000000011
    49   1      4.3050000000000068      31.570000000000011      30.135000000000005
    50   1      4.3050000000000068       33.00500000000001      28.700000000000006
    51   1      2.8700000000000117      31.570000000000011      31.570000000000011
    52   1      2.8700000000000117       33.00500000000001       33.00500000000001
    53   1      4.3050000000000068      31.570000000000011       33.00500000000001
    54   1      4.3050000000000068       33.00500000000001      31.570000000000011
    55   1      2.8700000000000117      31.570000000000011      34.440000000000005
    56   1      2.8700000000000117       33.00500000000001      35.875000000000007
    57   1      4.3050000000000068      31.570000000000011      35.875000000000007
    58   1      4.3050000000000068       33.00500000000001      34.440000000000005
    59   1      2.8700000000000117      31.570000000000011      37.310000000000002
    60   1      2.8700000000000117       33.00500000000001      38.745000000000005
    61   1      4.3050000000000068      31.570000000000011      38.745000000000005
    62   1      4.3050000000000068       33.00500000000001      37.310000000000002
    63   1      2.8700000000000117      31.570000000000011      40.180000000000007
    64   1      2.8700000000000117       33.00500000000001      41.615000000000009
    65   1      4.3050000000000068      31.570000000000011      41.615000000000009
    66   1      4.3050000000000068       33.00500000000001      40.180000000000007
    67   1      2.8700000000000117      31.570000000000011      43.050000000000011
    68   1      4.3050000000000068      31.570000000000011      44.485000000000014
    69   1      4.3050000000000068       33.00500000000001      43.050000000000011
    70   1      4.3050000000000068       33.00500000000001      45.920000000000009
    71   1      4.3050000000000068      34.440000000000005      27.265000000000008
    72   1      2.8700000000000117      35.875000000000007      30.135000000000005
    73   1      4.3050000000000068      34.440000000000005      30.135000000000005
    74   1      4.3050000000000068      35.875000000000007      28.700000000000006
    75   1      2.8700000000000117      34.440000000000005      31.570000000000011
    76   1      2.8700000000000117      35.875000000000007       33.00500000000001
    77   1      4.3050000000000068      34.440000000000005       33.00500000000001
    78   1      4.3050000000000068      35.875000000000007      31.570000000000011
    79   1      2.8700000000000117      34.440000000000005      34.440000000000005
    80   1      2.8700000000000117      35.875000000000007      35.875000000000007
    81   1      4.3050000000000068      34.440000000000005      35.875000000000007
    82   1      4.3050000000000068      35.875000000000007      34.440000000000005
    83   1      2.8700000000000117      34.440000000000005      37.310000000000002
    84   1      2.8700000000000117      35.875000000000007      38.745000000000005
    85   1      4.3050000000000068      34.440000000000005      38.745000000000005
    86   1      4.3050000000000068      35.875000000000007      37.310000000000002
    87   1      2.8700000000000117      34.440000000000005      40.180000000000007
    88   1      2.8700000000000117      35.875000000000007      41.615000000000009
    89   1      4.3050000000000068      34.440000000000005      41.615000000000009
    90   1      4.3050000000000068      35.875000000000007      40.180000000000007
    91   1      2.8700000000000117      34.440000000000005      43.050000000000011
    92   1      2.8700000000000117      35.875000000000007      44.485000000000014
    93   1      4.3050000000000068      34.440000000000005      44.485000000000014
    94   1      4.3050000000000068      35.875000000000007      43.050000000000011
    95   1      4.3050000000000068      34.440000000000005      47.355000000000004
    96   1      4.3050000000000068      35.875000000000007      45.920000000000009
    97   1      4.3050000000000068      37.310000000000002      27.265000000000008
    98   1      2.8700000000000117      37.310000000000002      28.700000000000006
    99   1      2.8700000000000117      38.745000000000005      30.135000000000005
   100   1      4.3050000000000068      37.310000000000002      30.135000000000005
   101   1      4.3050000000000068      38.745000000000005      28.700000000000006
   102   1      2.8700000000000117      37.310000000000002      31.570000000000011
   103   1      2.8700000000000117      38.745000000000005       33.00500000000001
   104   1      4.3050000000000068      37.310000000000002       33.00500000000001
   105   1      4.3050000000000068      38.745000000000005      31.570000000000011
   106   1      2.8700000000000117      37.310000000000002      34.440000000000005
   107   1      2.8700000000000117      38.745000000000005      35.875000000000007
   108   1      4.3050000000000068      37.310000000000002      35.875000000000007
   109   1      4.3050000000000068      38.745000000000005      34.440000000000005
   110   1      2.8700000000000117      37.310000000000002      37.310000000000002
   111   1      2.8700000000000117      38.745000000000005      38.745000000000005
   112   1      4.3050000000000068      37.310000000000002      38.745000000000005
   113   1      4.3050000000000068      38.745000000000005      37.310000000000002
   114   1      2.8700000000000117      37.310000000000002      40.180000000000007
   115   1      2.8700000000000117      38.745000000000005      41.615000000000009
   116   1      4.3050000000000068      37.310000000000002      41.615000000000009
   117   1      4.3050000000000068      38.745000000000005      40.180000000000007
   118   1      2.8700000000000117      37.310000000000002      43.050000000000011
   119   1      2.8700000000000117      38.745000000000005      44.485000000000014
   120   1      4.3050000000000068      37.310000000000002      44.485000000000014
   121   1      4.3050000000000068      38.745000000000005      43.050000000000011
   122   1      2.8700000000000117      37.310000000000002      45.920000000000009
   123   1      4.3050000000000068      37.310000000000002      47.355000000000004
   124   1      4.3050000000000068      38.745000000000005      45.920000000000009
   125   1      4.3050000000000068      40.180000000000007      27.265000000000008
   126   1      4.3050000000000068      40.180000000000007      30.135000000000005
   127   1      4.3050000000000068      41.615000000000009      28.700000000000006
   128   1      2.8700000000000117      40.180000000000007      31.570000000000011
   129   1      2.8700000000000117      41.615000000000009       33.00500000000001
   130   1      4.3050000000000068      40.180000000000007       33.00500000000001
   131   1      4.3050000000000068      41.615000000000009      31.570000000000011
   132   1      2.8700000000000117      40.180000000000007      34.440000000000005
   133   1      2.8700000000000117      41.615000000000009      35.875000000000007
   134   1      4.3050000000000068      40.180000000000007      35.875000000000007
   135   1      4.3050000000000068      41.615000000000009      34.440000000000005
   136   1      2.8700000000000117      40.180000000000007      37.310000000000002
   137   1      2.8700000000000117      41.615000000000009      38.745000000000005
   138   1      4.3050000000000068      40.180000000000007      38.745000000000005
   139   1      4.3050000000000068      41.615000000000009      37.310000000000002
   140   1      2.8700000000000117      40.180000000000007      40.180000000000007
   141   1      2.8700000000000117      41.615000000000009      41.615000000000009
   142   1      4.3050000000000068      40.180000000000007      41.615000000000009
   143   1      4.3050000000000068      41.615000000000009      40.180000000000007
   144   1      2.8700000000000117      40.180000000000007      43.050000000000011
   145   1      4.3050000000000068      40.180000000000007      44.485000000000014
   146   1      4.3050000000000068      41.615000000000009      43.050000000000011
   147   1      4.3050000000000068      40.180000000000007      47.355000000000004
   148   1      4.3050000000000068      41.615000000000009      45.920000000000009
   149   1      4.3050000000000068      43.050000000000011      30.135000000000005
   150   1      2.8700000000000117      43.050000000000011      31.570000000000011
   151   1      4.3050000000000068      43.050000000000011       33.00500000000001
   152   1      4.3050000000000068      44.485000000000014      31.570000000000011
   153   1      2.8700000000000117      43.050000000000011      34.440000000000005
   154   1      2.8700000000000117      44.485000000000014      35.875000000000007
   155   1      4.3050000000000068      43.050000000000011      35.875000000000007
   156   1      4.3050000000000068      44.485000000000014      34.440000000000005
   157   1      2.8700000000000117      43.050000000000011      37.310000000000002
   158   1      2.8700000000000117      44.485000000000014      38.745000000000005
   159   1      4.3050000000000068      43.050000000000011      38.745000000000005
   160   1      4.3050000000000068      44.485000000000014      37.310000000000002
   161   1      2.8700000000000117      43.050000000000011      40.180000000000007
   162   1      4.3050000000000068      43.050000000000011      41.615000000000009
   163   1      4.3050000000000068      44.485000000000014      40.180000000000007
   164   1      2.8700000000000117      43.050000000000011      43.050000000000011
   165   1      4.3050000000000068      43.050000000000011      44.485000000000014
   166   1      4.3050000000000068      44.485000000000014      43.050000000000011
   167   1      4.3050000000000068      45.920000000000009       33.00500000000001
   168   1      4.3050000000000068      45.920000000000009      35.875000000000007
   169   1      4.3050000000000068      47.355000000000004      34.440000000000005
   170   1      2.8700000000000117      45.920000000000009      37.310000000000002
   171   1      4.3050000000000068      45.920000000000009      38.745000000000005
   172   1      4.3050000000000068      47.355000000000004      37.310000000000002
   173   1      4.3050000000000068      45.920000000000009      41.615000000000009
   174   1      4.3050000000000068      47.355000000000004      40.180000000000007
   175   1      7.1750000000000123      21.525000000000009      34.440000000000005
   176   1      7.1750000000000123      21.525000000000009      37.310000000000002
   177   1      7.1750000000000123      21.525000000000009      40.180000000000007
   178   1      7.1750000000000123      24.395000000000007      28.700000000000006
   179   1      7.1750000000000123      22.960000000000008       33.00500000000001
   180   1      7.1750000000000123      24.395000000000007      31.570000000000011
   181   1      5.7400000000000091      24.395000000000007      35.875000000000007
   182   1      7.1750000000000123      22.960000000000008      35.875000000000007
   183   1      7.1750000000000123      24.395000000000007      34.440000000000005
   184   1      5.7400000000000091      22.960000000000008      37.310000000000002
   185   1      5.7400000000000091      24.395000000000007      38.745000000000005
   186   1      7.1750000000000123      22.960000000000008      38.745000000000005
   187   1      7.1750000000000123      24.395000000000007      37.310000000000002
   188   1      7.1750000000000123      22.960000000000008      41.615000000000009
   189   1      7.1750000000000123      24.395000000000007      40.180000000000007
   190   1      7.1750000000000123      24.395000000000007      43.050000000000011
   191   1      7.1750000000000123      24.395000000000007      45.920000000000009
   192   1      7.1750000000000123      25.830000000000009      27.265000000000008
   193   1      7.1750000000000123      27.265000000000008      25.830000000000009
   194   1      5.7400000000000091      27.265000000000008      30.135000000000005
   195   1      7.1750000000000123      25.830000000000009      30.135000000000005
   196   1      7.1750000000000123      27.265000000000008      28.700000000000006
   197   1      5.7400000000000091      25.830000000000009      31.570000000000011
   198   1      5.7400000000000091      27.265000000000008       33.00500000000001
   199   1      7.1750000000000123      25.830000000000009       33.00500000000001
   200   1      7.1750000000000123      27.265000000000008      31.570000000000011
   201   1      5.7400000000000091      25.830000000000009      34.440000000000005
   202   1      5.7400000000000091      27.265000000000008      35.875000000000007
   203   1      7.1750000000000123      25.830000000000009      35.875000000000007
   204   1      7.1750000000000123      27.265000000000008      34.440000000000005
   205   1      5.7400000000000091      25.830000000000009      37.310000000000002
   206   1      5.7400000000000091      27.265000000000008      38.745000000000005
   207   1      7.1750000000000123      25.830000000000009      38.745000000000005
   208   1      7.1750000000000123      27.265000000000008      37.310000000000002
   209   1      5.7400000000000091      25.830000000000009      40.180000000000007
   210   1      5.7400000000000091      27.265000000000008      41.615000000000009
   211   1      7.1750000000000123      25.830000000000009      41.615000000000009
   212   1      7.1750000000000123      27.265000000000008      40.180000000000007
   213   1      5.7400000000000091      25.830000000000009      43.050000000000011
   214   1      5.7400000000000091      27.265000000000008      44.485000000000014
   215   1      7.1750000000000123      25.830000000000009      44.485000000000014
   216   1      7.1750000000000123      27.265000000000008      43.050000000000011
   217   1      7.1750000000000123      25.830000000000009      47.355000000000004
   218   1      7.1750000000000123      27.265000000000008      45.920000000000009
   219   1      7.1750000000000123      27.265000000000008      48.790000000000006
   220   1      7.1750000000000123      28.700000000000006      24.395000000000007
   221   1      5.7400000000000091      30.135000000000005      27.265000000000008
   222   1      7.1750000000000123      28.700000000000006      27.265000000000008
   223   1      7.1750000000000123      30.135000000000005      25.830000000000009
   224   1      5.7400000000000091      28.700000000000006      28.700000000000006
   225   1      5.7400000000000091      30.135000000000005      30.135000000000005
   226   1      7.1750000000000123      28.700000000000006      30.135000000000005
   227   1      7.1750000000000123      30.135000000000005      28.700000000000006
   228   1      5.7400000000000091      28.700000000000006      31.570000000000011
   229   1      5.7400000000000091      30.135000000000005       33.00500000000001
   230   1      7.1750000000000123      28.700000000000006       33.00500000000001
   231   1      7.1750000000000123      30.135000000000005      31.570000000000011
   232   1      5.7400000000000091      28.700000000000006      34.440000000000005
   233   1      5.7400000000000091      30.135000000000005      35.875000000000007
   234   1      7.1750000000000123      28.700000000000006      35.875000000000007
   235   1      7.1750000000000123      30.135000000000005      34.440000000000005
   236   1      5.7400000000000091      28.700000000000006      37.310000000000002
   237   1      5.7400000000000091      30.135000000000005      38.745000000000005
   238   1      7.1750000000000123      28.700000000000006      38.745000000000005
   239   1      7.1750000000000123      30.135000000000005      37.310000000000002
   240   1      5.7400000000000091      28.700000000000006      40.180000000000007
   241   1      5.7400000000000091      30.135000000000005      41.615000000000009
   242   1      7.1750000000000123      28.700000000000006      41.615000000000009
   243   1      7.1750000000000123      30.135000000000005      40.180000000000007
   244   1      5.7400000000000091      28.700000000000006      43.050000000000011
   245   1      5.7400000000000091      30.135000000000005      44.485000000000014
   246   1      7.1750000000000123      28.700000000000006      44.485000000000014
   247   1      7.1750000000000123      30.135000000000005      43.050000000000011
   248   1      5.7400000000000091      28.700000000000006      45.920000000000009
   249   1      5.7400000000000091      30.135000000000005      47.355000000000004
   250   1      7.1750000000000123      28.700000000000006      47.355000000000004
   251   1      7.1750000000000123      30.135000000000005      45.920000000000009
   252   1      7.1750000000000123      28.700000000000006      50.225000000000009
   253   1      7.1750000000000123      30.135000000000005      48.790000000000006
   254   1      7.1750000000000123      31.570000000000011      24.395000000000007
   255   1      7.1750000000000123       33.00500000000001      22.960000000000008
   256   1      5.7400000000000091      31.570000000000011      25.830000000000009
   257   1      5.7400000000000091       33.00500000000001      27.265000000000008
   258   1      7.1750000000000123      31.570000000000011      27.265000000000008
   259   1      7.1750000000000123       33.00500000000001      25.830000000000009
   260   1      5.7400000000000091      31.570000000000011      28.700000000000006
   261   1      5.7400000000000091       33.00500000000001      30.135000000000005
   262   1      7.1750000000000123      31.570000000000011      30.135000000000005
   263   1      7.1750000000000123       33.00500000000001      28.700000000000006
   264   1      5.7400000000000091      31.570000000000011      31.570000000000011
   265   1      5.7400000000000091       33.00500000000001       33.00500000000001
   266   1      7.1750000000000123      31.570000000000011       33.00500000000001
   267   1      7.1750000000000123       33.00500000000001      31.570000000000011
   268   1      5.7400000000000091      31.570000000000011      34.440000000000005
   269   1      5.7400000000000091       33.00500000000001      35.875000000000007
   270   1      7.1750000000000123      31.570000000000011      35.875000000000007
   271   1      7.1750000000000123       33.00500000000001      34.440000000000005
   272   1      5.7400000000000091      31.570000000000011      37.310000000000002
   273   1      5.7400000000000091       33.00500000000001      38.745000000000005
   274   1      7.1750000000000123      31.570000000000011      38.745000000000005
   275   1      7.1750000000000123       33.00500000000001      37.310000000000002
   276   1      5.7400000000000091      31.570000000000011      40.180000000000007
   277   1      5.7400000000000091       33.00500000000001      41.615000000000009
   278   1      7.1750000000000123      31.570000000000011      41.615000000000009
   279   1      7.1750000000000123       33.00500000000001      40.180000000000007
   280   1      5.7400000000000091      31.570000000000011      43.050000000000011
   281   1      5.7400000000000091       33.00500000000001      44.485000000000014
   282   1      7.1750000000000123      31.570000000000011      44.485000000000014
   283   1      7.1750000000000123       33.00500000000001      43.050000000000011
   284   1      5.7400000000000091      31.570000000000011      45.920000000000009
   285   1      5.7400000000000091       33.00500000000001      47.355000000000004
   286   1      7.1750000000000123      31.570000000000011      47.355000000000004
   287   1      7.1750000000000123       33.00500000000001      45.920000000000009
   288   1      5.7400000000000091      31.570000000000011      48.790000000000006
   289   1      7.1750000000000123      31.570000000000011      50.225000000000009
   290   1      7.1750000000000123       33.00500000000001      48.790000000000006
   291   1      7.1750000000000123       33.00500000000001      51.660000000000004
   292   1      7.1750000000000123      34.440000000000005      21.525000000000009
   293   1      5.7400000000000091      35.875000000000007      24.395000000000007
   294   1      7.1750000000000123      34.440000000000005      24.395000000000007
   295   1      7.1750000000000123      35.875000000000007      22.960000000000008
   296   1      5.7400000000000091      34.440000000000005      25.830000000000009
   297   1      5.7400000000000091      35.875000000000007      27.265000000000008
   298   1      7.1750000000000123      34.440000000000005      27.265000000000008
   299   1      7.1750000000000123      35.875000000000007      25.830000000000009
   300   1      5.7400000000000091      34.440000000000005      28.700000000000006
   301   1      5.7400000000000091      35.875000000000007      30.135000000000005
   302   1      7.1750000000000123      34.440000000000005      30.135000000000005
   303   1      7.1750000000000123      35.875000000000007      28.700000000000006
   304   1      5.7400000000000091      34.440000000000005      31.570000000000011
   305   1      5.7400000000000091      35.875000000000007       33.00500000000001
   306   1      7.1750000000000123      34.440000000000005       33.00500000000001
   307   1      7.1750000000000123      35.875000000000007      31.570000000000011
   308   1      5.7400000000000091      34.440000000000005      34.440000000000005
   309   1      5.7400000000000091      35.875000000000007      35.875000000000007
   310   1      7.1750000000000123      34.440000000000005      35.875000000000007
   311   1      7.1750000000000123      35.875000000000007      34.440000000000005
   312   1      5.7400000000000091      34.440000000000005      37.310000000000002
   313   1      5.7400000000000091      35.875000000000007      38.745000000000005
   314   1      7.1750000000000123      34.440000000000005      38.745000000000005
   315   1      7.1750000000000123      35.875000000000007      37.310000000000002
   316   1      5.7400000000000091      34.440000000000005      40.180000000000007
   317   1      5.7400000000000091      35.875000000000007      41.615000000000009
   318   1      7.1750000000000123      34.440000000000005      41.615000000000009
   319   1      7.1750000000000123      35.875000000000007      40.180000000000007
   320   1      5.7400000000000091      34.440000000000005      43.050000000000011
   321   1      5.7400000000000091      35.875000000000007      44.485000000000014
   322   1      7.1750000000000123      34.440000000000005      44.485000000000014
   323   1      7.1750000000000123      35.875000000000007      43.050000000000011
   324   1      5.7400000000000091      34.440000000000005      45.920000000000009
   325   1      5.7400000000000091      35.875000000000007      47.355000000000004
   326   1      7.1750000000000123      34.440000000000005      47.355000000000004
   327   1      7.1750000000000123      35.875000000000007      45.920000000000009
   328   1      5.7400000000000091      34.440000000000005      48.790000000000006
   329   1      5.7400000000000091      35.875000000000007      50.225000000000009
   330   1      7.1750000000000123      34.440000000000005      50.225000000000009
   331   1      7.1750000000000123      35.875000000000007      48.790000000000006
   332   1      7.1750000000000123      34.440000000000005      53.095000000000013
   333   1      7.1750000000000123      35.875000000000007      51.660000000000004
   334   1      7.1750000000000123      37.310000000000002      21.525000000000009
   335   1      5.7400000000000091      37.310000000000002      22.960000000000008
   336   1      5.7400000000000091      38.745000000000005      24.395000000000007
   337   1      7.1750000000000123      37.310000000000002      24.395000000000007
   338   1      7.1750000000000123      38.745000000000005      22.960000000000008
   339   1      5.7400000000000091      37.310000000000002      25.830000000000009
   340   1      5.7400000000000091      38.745000000000005      27.265000000000008
   341   1      7.1750000000000123      37.310000000000002      27.265000000000008
   342   1      7.1750000000000123      38.745000000000005      25.830000000000009
   343   1      5.7400000000000091      37.310000000000002      28.700000000000006
   344   1      5.7400000000000091      38.745000000000005      30.135000000000005
   345   1      7.1750000000000123      37.310000000000002      30.135000000000005
   346   1      7.1750000000000123      38.745000000000005      28.700000000000006
   347   1      5.7400000000000091      37.310000000000002      31.570000000000011
   348   1      5.7400000000000091      38.745000000000005       33.00500000000001
   349   1      7.1750000000000123      37.310000000000002       33.00500000000001
   350   1      7.1750000000000123      38.745000000000005      31.570000000000011
   351   1      5.7400000000000091      37.310000000000002      34.440000000000005
   352   1      5.7400000000000091      38.745000000000005      35.875000000000007
   353   1      7.1750000000000123      37.310000000000002      35.875000000000007
   354   1      7.1750000000000123      38.745000000000005      34.440000000000005
   355   1      5.7400000000000091      37.310000000000002      37.310000000000002
   356   1      5.7400000000000091      38.745000000000005      38.745000000000005
   357   1      7.1750000000000123      37.310000000000002      38.745000000000005
   358   1      7.1750000000000123      38.745000000000005      37.310000000000002