model_files/CuNi/CuNi_30000/CuNi_553/CuNi_553_fcc_29881_temp.data (written by ASE) 

29881 	 atoms 
2  atom types
0.0                     114  xlo xhi
0.0                     114  ylo yhi
0.0                     114  zlo zhi


Atoms 

     1   1                       0      55.273000000000003      55.273000000000003
     2   1      1.7829999999999941      53.490000000000002      55.273000000000003
     3   1      1.7829999999999941      55.273000000000003      53.490000000000002
     4   1                       0      55.273000000000003      58.839000000000006
     5   1      1.7829999999999941      53.490000000000002      58.839000000000006
     6   1      1.7829999999999941      55.273000000000003      57.055999999999997
     7   1      1.7829999999999941      55.273000000000003      60.621999999999993
     8   1                       0      58.839000000000006      55.273000000000003
     9   1      1.7829999999999941      57.055999999999997      55.273000000000003
    10   1      1.7829999999999941      58.839000000000006      53.490000000000002
    11   1                       0      57.055999999999997      57.055999999999997
    12   1                       0      58.839000000000006      58.839000000000006
    13   1      1.7829999999999941      57.055999999999997      58.839000000000006
    14   1      1.7829999999999941      58.839000000000006      57.055999999999997
    15   1      1.7829999999999941      58.839000000000006      60.621999999999993
    16   1      1.7829999999999941      60.621999999999993      55.273000000000003
    17   1      1.7829999999999941      60.621999999999993      58.839000000000006
    18   1      3.5659999999999954      51.706999999999994      55.273000000000003
    19   1      5.3489999999999958      49.923999999999999      55.273000000000003
    20   1      5.3489999999999958      51.706999999999994      53.490000000000002
    21   1      3.5659999999999954      51.706999999999994      58.839000000000006
    22   1      5.3489999999999958      49.923999999999999      58.839000000000006
    23   1      5.3489999999999958      51.706999999999994      57.055999999999997
    24   1      5.3489999999999958      51.706999999999994      60.621999999999993
    25   1      3.5659999999999954      55.273000000000003      51.706999999999994
    26   1      5.3489999999999958      53.490000000000002      51.706999999999994
    27   1      5.3489999999999958      55.273000000000003      49.923999999999999
    28   1      3.5659999999999954      53.490000000000002      53.490000000000002
    29   1      3.5659999999999954      55.273000000000003      55.273000000000003
    30   1      5.3489999999999958      53.490000000000002      55.273000000000003
    31   1      5.3489999999999958      55.273000000000003      53.490000000000002
    32   1      3.5659999999999954      53.490000000000002      57.055999999999997
    33   1      3.5659999999999954      55.273000000000003      58.839000000000006
    34   1      5.3489999999999958      53.490000000000002      58.839000000000006
    35   1      5.3489999999999958      55.273000000000003      57.055999999999997
    36   1      3.5659999999999954      53.490000000000002      60.621999999999993
    37   1      3.5659999999999954      55.273000000000003      62.405000000000001
    38   1      5.3489999999999958      53.490000000000002      62.405000000000001
    39   1      5.3489999999999958      55.273000000000003      60.621999999999993
    40   1      5.3489999999999958      55.273000000000003      64.188000000000002
    41   1      3.5659999999999954      58.839000000000006      51.706999999999994
    42   1      5.3489999999999958      57.055999999999997      51.706999999999994
    43   1      5.3489999999999958      58.839000000000006      49.923999999999999
    44   1      3.5659999999999954      57.055999999999997      53.490000000000002
    45   1      3.5659999999999954      58.839000000000006      55.273000000000003
    46   1      5.3489999999999958      57.055999999999997      55.273000000000003
    47   1      5.3489999999999958      58.839000000000006      53.490000000000002
    48   1      3.5659999999999954      57.055999999999997      57.055999999999997
    49   1      3.5659999999999954      58.839000000000006      58.839000000000006
    50   1      5.3489999999999958      57.055999999999997      58.839000000000006
    51   1      5.3489999999999958      58.839000000000006      57.055999999999997
    52   1      3.5659999999999954      57.055999999999997      60.621999999999993
    53   1      3.5659999999999954      58.839000000000006      62.405000000000001
    54   1      5.3489999999999958      57.055999999999997      62.405000000000001
    55   1      5.3489999999999958      58.839000000000006      60.621999999999993
    56   1      5.3489999999999958      58.839000000000006      64.188000000000002
    57   1      5.3489999999999958      60.621999999999993      51.706999999999994
    58   1      3.5659999999999954      60.621999999999993      53.490000000000002
    59   1      3.5659999999999954      62.405000000000001      55.273000000000003
    60   1      5.3489999999999958      60.621999999999993      55.273000000000003
    61   1      5.3489999999999958      62.405000000000001      53.490000000000002
    62   1      3.5659999999999954      60.621999999999993      57.055999999999997
    63   1      3.5659999999999954      62.405000000000001      58.839000000000006
    64   1      5.3489999999999958      60.621999999999993      58.839000000000006
    65   1      5.3489999999999958      62.405000000000001      57.055999999999997
    66   1      3.5659999999999954      60.621999999999993      60.621999999999993
    67   1      5.3489999999999958      60.621999999999993      62.405000000000001
    68   1      5.3489999999999958      62.405000000000001      60.621999999999993
    69   1      5.3489999999999958      64.188000000000002      55.273000000000003
    70   1      5.3489999999999958      64.188000000000002      58.839000000000006
    71   1       7.131999999999997      48.141000000000005      55.273000000000003
    72   1      8.9149999999999991      46.357999999999997      55.273000000000003
    73   1      8.9149999999999991      48.141000000000005      53.490000000000002
    74   1       7.131999999999997      48.141000000000005      58.839000000000006
    75   1      8.9149999999999991      46.357999999999997      58.839000000000006
    76   1      8.9149999999999991      48.141000000000005      57.055999999999997
    77   1      8.9149999999999991      48.141000000000005      60.621999999999993
    78   1       7.131999999999997      51.706999999999994      51.706999999999994
    79   1      8.9149999999999991      49.923999999999999      51.706999999999994
    80   1      8.9149999999999991      51.706999999999994      49.923999999999999
    81   1       7.131999999999997      49.923999999999999      53.490000000000002
    82   1       7.131999999999997      51.706999999999994      55.273000000000003
    83   1      8.9149999999999991      49.923999999999999      55.273000000000003
    84   1      8.9149999999999991      51.706999999999994      53.490000000000002
    85   1       7.131999999999997      49.923999999999999      57.055999999999997
    86   1       7.131999999999997      51.706999999999994      58.839000000000006
    87   1      8.9149999999999991      49.923999999999999      58.839000000000006
    88   1      8.9149999999999991      51.706999999999994      57.055999999999997
    89   1       7.131999999999997      49.923999999999999      60.621999999999993
    90   1       7.131999999999997      51.706999999999994      62.405000000000001
    91   1      8.9149999999999991      49.923999999999999      62.405000000000001
    92   1      8.9149999999999991      51.706999999999994      60.621999999999993
    93   1      8.9149999999999991      51.706999999999994      64.188000000000002
    94   1       7.131999999999997      55.273000000000003      48.141000000000005
    95   1      8.9149999999999991      53.490000000000002      48.141000000000005
    96   1      8.9149999999999991      55.273000000000003      46.357999999999997
    97   1       7.131999999999997      53.490000000000002      49.923999999999999
    98   1       7.131999999999997      55.273000000000003      51.706999999999994
    99   1      8.9149999999999991      53.490000000000002      51.706999999999994
   100   1      8.9149999999999991      55.273000000000003      49.923999999999999
   101   1       7.131999999999997      53.490000000000002      53.490000000000002
   102   1       7.131999999999997      55.273000000000003      55.273000000000003
   103   1      8.9149999999999991      53.490000000000002      55.273000000000003
   104   1      8.9149999999999991      55.273000000000003      53.490000000000002
   105   1       7.131999999999997      53.490000000000002      57.055999999999997
   106   1       7.131999999999997      55.273000000000003      58.839000000000006
   107   1      8.9149999999999991      53.490000000000002      58.839000000000006
   108   1      8.9149999999999991      55.273000000000003      57.055999999999997
   109   1       7.131999999999997      53.490000000000002      60.621999999999993
   110   1       7.131999999999997      55.273000000000003      62.405000000000001
   111   1      8.9149999999999991      53.490000000000002      62.405000000000001
   112   1      8.9149999999999991      55.273000000000003      60.621999999999993
   113   1       7.131999999999997      53.490000000000002      64.188000000000002
   114   1       7.131999999999997      55.273000000000003      65.970999999999989
   115   1      8.9149999999999991      53.490000000000002      65.970999999999989
   116   1      8.9149999999999991      55.273000000000003      64.188000000000002
   117   1      8.9149999999999991      55.273000000000003      67.754000000000005
   118   1       7.131999999999997      58.839000000000006      48.141000000000005
   119   1      8.9149999999999991      57.055999999999997      48.141000000000005
   120   1      8.9149999999999991      58.839000000000006      46.357999999999997
   121   1       7.131999999999997      57.055999999999997      49.923999999999999
   122   1       7.131999999999997      58.839000000000006      51.706999999999994
   123   1      8.9149999999999991      57.055999999999997      51.706999999999994
   124   1      8.9149999999999991      58.839000000000006      49.923999999999999
   125   1       7.131999999999997      57.055999999999997      53.490000000000002
   126   1       7.131999999999997      58.839000000000006      55.273000000000003
   127   1      8.9149999999999991      57.055999999999997      55.273000000000003
   128   1      8.9149999999999991      58.839000000000006      53.490000000000002
   129   1       7.131999999999997      57.055999999999997      57.055999999999997
   130   1       7.131999999999997      58.839000000000006      58.839000000000006
   131   1      8.9149999999999991      57.055999999999997      58.839000000000006
   132   1      8.9149999999999991      58.839000000000006      57.055999999999997
   133   1       7.131999999999997      57.055999999999997      60.621999999999993
   134   1       7.131999999999997      58.839000000000006      62.405000000000001
   135   1      8.9149999999999991      57.055999999999997      62.405000000000001
   136   1      8.9149999999999991      58.839000000000006      60.621999999999993
   137   1       7.131999999999997      57.055999999999997      64.188000000000002
   138   1       7.131999999999997      58.839000000000006      65.970999999999989
   139   1      8.9149999999999991      57.055999999999997      65.970999999999989
   140   1      8.9149999999999991      58.839000000000006      64.188000000000002
   141   1      8.9149999999999991      58.839000000000006      67.754000000000005
   142   1      8.9149999999999991      60.621999999999993      48.141000000000005
   143   1       7.131999999999997      60.621999999999993      49.923999999999999
   144   1       7.131999999999997      62.405000000000001      51.706999999999994
   145   1      8.9149999999999991      60.621999999999993      51.706999999999994
   146   1      8.9149999999999991      62.405000000000001      49.923999999999999
   147   1       7.131999999999997      60.621999999999993      53.490000000000002
   148   1       7.131999999999997      62.405000000000001      55.273000000000003
   149   1      8.9149999999999991      60.621999999999993      55.273000000000003
   150   1      8.9149999999999991      62.405000000000001      53.490000000000002
   151   1       7.131999999999997      60.621999999999993      57.055999999999997
   152   1       7.131999999999997      62.405000000000001      58.839000000000006
   153   1      8.9149999999999991      60.621999999999993      58.839000000000006
   154   1      8.9149999999999991      62.405000000000001      57.055999999999997
   155   1       7.131999999999997      60.621999999999993      60.621999999999993
   156   1       7.131999999999997      62.405000000000001      62.405000000000001
   157   1      8.9149999999999991      60.621999999999993      62.405000000000001
   158   1      8.9149999999999991      62.405000000000001      60.621999999999993
   159   1       7.131999999999997      60.621999999999993      64.188000000000002
   160   1      8.9149999999999991      60.621999999999993      65.970999999999989
   161   1      8.9149999999999991      62.405000000000001      64.188000000000002
   162   1      8.9149999999999991      64.188000000000002      51.706999999999994
   163   1       7.131999999999997      64.188000000000002      53.490000000000002
   164   1       7.131999999999997      65.970999999999989      55.273000000000003
   165   1      8.9149999999999991      64.188000000000002      55.273000000000003
   166   1      8.9149999999999991      65.970999999999989      53.490000000000002
   167   1       7.131999999999997      64.188000000000002      57.055999999999997
   168   1       7.131999999999997      65.970999999999989      58.839000000000006
   169   1      8.9149999999999991      64.188000000000002      58.839000000000006
   170   1      8.9149999999999991      65.970999999999989      57.055999999999997
   171   1       7.131999999999997      64.188000000000002      60.621999999999993
   172   1      8.9149999999999991      64.188000000000002      62.405000000000001
   173   1      8.9149999999999991      65.970999999999989      60.621999999999993
   174   1      8.9149999999999991      67.754000000000005      55.273000000000003
   175   1      8.9149999999999991      67.754000000000005      58.839000000000006
   176   1                  10.698      44.575000000000003      55.273000000000003
   177   1      12.481000000000002      42.792000000000002      55.273000000000003
   178   1      12.481000000000002      44.575000000000003      53.490000000000002
   179   1                  10.698      44.575000000000003      58.839000000000006
   180   1      12.481000000000002      42.792000000000002      58.839000000000006
   181   1      12.481000000000002      44.575000000000003      57.055999999999997
   182   1      12.481000000000002      44.575000000000003      60.621999999999993
   183   1                  10.698      48.141000000000005      51.706999999999994
   184   1      12.481000000000002      46.357999999999997      51.706999999999994
   185   1      12.481000000000002      48.141000000000005      49.923999999999999
   186   1                  10.698      46.357999999999997      53.490000000000002
   187   1                  10.698      48.141000000000005      55.273000000000003
   188   1      12.481000000000002      46.357999999999997      55.273000000000003
   189   1      12.481000000000002      48.141000000000005      53.490000000000002
   190   1                  10.698      46.357999999999997      57.055999999999997
   191   1                  10.698      48.141000000000005      58.839000000000006
   192   1      12.481000000000002      46.357999999999997      58.839000000000006
   193   1      12.481000000000002      48.141000000000005      57.055999999999997
   194   1                  10.698      46.357999999999997      60.621999999999993
   195   1                  10.698      48.141000000000005      62.405000000000001
   196   1      12.481000000000002      46.357999999999997      62.405000000000001
   197   1      12.481000000000002      48.141000000000005      60.621999999999993
   198   1      12.481000000000002      48.141000000000005      64.188000000000002
   199   1                  10.698      51.706999999999994      48.141000000000005
   200   1      12.481000000000002      49.923999999999999      48.141000000000005
   201   1      12.481000000000002      51.706999999999994      46.357999999999997
   202   1                  10.698      49.923999999999999      49.923999999999999
   203   1                  10.698      51.706999999999994      51.706999999999994
   204   1      12.481000000000002      49.923999999999999      51.706999999999994
   205   1      12.481000000000002      51.706999999999994      49.923999999999999
   206   1                  10.698      49.923999999999999      53.490000000000002
   207   1                  10.698      51.706999999999994      55.273000000000003
   208   1      12.481000000000002      49.923999999999999      55.273000000000003
   209   1      12.481000000000002      51.706999999999994      53.490000000000002
   210   1                  10.698      49.923999999999999      57.055999999999997
   211   1                  10.698      51.706999999999994      58.839000000000006
   212   1      12.481000000000002      49.923999999999999      58.839000000000006
   213   1      12.481000000000002      51.706999999999994      57.055999999999997
   214   1                  10.698      49.923999999999999      60.621999999999993
   215   1                  10.698      51.706999999999994      62.405000000000001
   216   1      12.481000000000002      49.923999999999999      62.405000000000001
   217   1      12.481000000000002      51.706999999999994      60.621999999999993
   218   1                  10.698      49.923999999999999      64.188000000000002
   219   1                  10.698      51.706999999999994      65.970999999999989
   220   1      12.481000000000002      49.923999999999999      65.970999999999989
   221   1      12.481000000000002      51.706999999999994      64.188000000000002
   222   1      12.481000000000002      51.706999999999994      67.754000000000005
   223   1                  10.698      55.273000000000003      44.575000000000003
   224   1      12.481000000000002      53.490000000000002      44.575000000000003
   225   1      12.481000000000002      55.273000000000003      42.792000000000002
   226   1                  10.698      53.490000000000002      46.357999999999997
   227   1                  10.698      55.273000000000003      48.141000000000005
   228   1      12.481000000000002      53.490000000000002      48.141000000000005
   229   1      12.481000000000002      55.273000000000003      46.357999999999997
   230   1                  10.698      53.490000000000002      49.923999999999999
   231   1                  10.698      55.273000000000003      51.706999999999994
   232   1      12.481000000000002      53.490000000000002      51.706999999999994
   233   1      12.481000000000002      55.273000000000003      49.923999999999999
   234   1                  10.698      53.490000000000002      53.490000000000002
   235   1                  10.698      55.273000000000003      55.273000000000003
   236   1      12.481000000000002      53.490000000000002      55.273000000000003
   237   1      12.481000000000002      55.273000000000003      53.490000000000002
   238   1                  10.698      53.490000000000002      57.055999999999997
   239   1                  10.698      55.273000000000003      58.839000000000006
   240   1      12.481000000000002      53.490000000000002      58.839000000000006
   241   1      12.481000000000002      55.273000000000003      57.055999999999997
   242   1                  10.698      53.490000000000002      60.621999999999993
   243   1                  10.698      55.273000000000003      62.405000000000001
   244   1      12.481000000000002      53.490000000000002      62.405000000000001
   245   1      12.481000000000002      55.273000000000003      60.621999999999993
   246   1                  10.698      53.490000000000002      64.188000000000002
   247   1                  10.698      55.273000000000003      65.970999999999989
   248   1      12.481000000000002      53.490000000000002      65.970999999999989
   249   1      12.481000000000002      55.273000000000003      64.188000000000002
   250   1                  10.698      53.490000000000002      67.754000000000005
   251   1                  10.698      55.273000000000003      69.537000000000006
   252   1      12.481000000000002      53.490000000000002      69.537000000000006
   253   1      12.481000000000002      55.273000000000003      67.754000000000005
   254   1      12.481000000000002      55.273000000000003      71.319999999999993
   255   1                  10.698      58.839000000000006      44.575000000000003
   256   1      12.481000000000002      57.055999999999997      44.575000000000003
   257   1      12.481000000000002      58.839000000000006      42.792000000000002
   258   1                  10.698      57.055999999999997      46.357999999999997
   259   1                  10.698      58.839000000000006      48.141000000000005
   260   1      12.481000000000002      57.055999999999997      48.141000000000005
   261   1      12.481000000000002      58.839000000000006      46.357999999999997
   262   1                  10.698      57.055999999999997      49.923999999999999
   263   1                  10.698      58.839000000000006      51.706999999999994
   264   1      12.481000000000002      57.055999999999997      51.706999999999994
   265   1      12.481000000000002      58.839000000000006      49.923999999999999
   266   1                  10.698      57.055999999999997      53.490000000000002
   267   1                  10.698      58.839000000000006      55.273000000000003
   268   1      12.481000000000002      57.055999999999997      55.273000000000003
   269   1      12.481000000000002      58.839000000000006      53.490000000000002
   270   1                  10.698      57.055999999999997      57.055999999999997
   271   1                  10.698      58.839000000000006      58.839000000000006
   272   1      12.481000000000002      57.055999999999997      58.839000000000006
   273   1      12.481000000000002      58.839000000000006      57.055999999999997
   274   1                  10.698      57.055999999999997      60.621999999999993
   275   1                  10.698      58.839000000000006      62.405000000000001
   276   1      12.481000000000002      57.055999999999997      62.405000000000001
   277   1      12.481000000000002      58.839000000000006      60.621999999999993
   278   1                  10.698      57.055999999999997      64.188000000000002
   279   1                  10.698      58.839000000000006      65.970999999999989
   280   1      12.481000000000002      57.055999999999997      65.970999999999989
   281   1      12.481000000000002      58.839000000000006      64.188000000000002
   282   1                  10.698      57.055999999999997      67.754000000000005
   283   1                  10.698      58.839000000000006      69.537000000000006
   284   1      12.481000000000002      57.055999999999997      69.537000000000006
   285   1      12.481000000000002      58.839000000000006      67.754000000000005
   286   1      12.481000000000002      58.839000000000006      71.319999999999993
   287   1      12.481000000000002      60.621999999999993      44.575000000000003
   288   1                  10.698      60.621999999999993      46.357999999999997
   289   1                  10.698      62.405000000000001      48.141000000000005
   290   1      12.481000000000002      60.621999999999993      48.141000000000005
   291   1      12.481000000000002      62.405000000000001      46.357999999999997
   292   1                  10.698      60.621999999999993      49.923999999999999
   293   1                  10.698      62.405000000000001      51.706999999999994
   294   1      12.481000000000002      60.621999999999993      51.706999999999994
   295   1      12.481000000000002      62.405000000000001      49.923999999999999
   296   1                  10.698      60.621999999999993      53.490000000000002
   297   1                  10.698      62.405000000000001      55.273000000000003
   298   1      12.481000000000002      60.621999999999993      55.273000000000003
   299   1      12.481000000000002      62.405000000000001      53.490000000000002
   300   1                  10.698      60.621999999999993      57.055999999999997
   301   1                  10.698      62.405000000000001      58.839000000000006
   302   1      12.481000000000002      60.621999999999993      58.839000000000006
   303   1      12.481000000000002      62.405000000000001      57.055999999999997
   304   1                  10.698      60.621999999999993      60.621999999999993
   305   1                  10.698      62.405000000000001      62.405000000000001
   306   1      12.481000000000002      60.621999999999993      62.405000000000001
   307   1      12.481000000000002      62.405000000000001      60.621999999999993
   308   1                  10.698      60.621999999999993      64.188000000000002
   309   1                  10.698      62.405000000000001      65.970999999999989
   310   1      12.481000000000002      60.621999999999993      65.970999999999989
   311   1      12.481000000000002      62.405000000000001      64.188000000000002
   312   1                  10.698      60.621999999999993      67.754000000000005
   313   1      12.481000000000002      60.621999999999993      69.537000000000006
   314   1      12.481000000000002      62.405000000000001      67.754000000000005
   315   1      12.481000000000002      64.188000000000002      48.141000000000005
   316   1                  10.698      64.188000000000002      49.923999999999999
   317   1                  10.698      65.970999999999989      51.706999999999994
   318   1      12.481000000000002      64.188000000000002      51.706999999999994
   319   1      12.481000000000002      65.970999999999989      49.923999999999999
   320   1                  10.698      64.188000000000002      53.490000000000002
   321   1                  10.698      65.970999999999989      55.273000000000003
   322   1      12.481000000000002      64.188000000000002      55.273000000000003
   323   1      12.481000000000002      65.970999999999989      53.490000000000002
   324   1                  10.698      64.188000000000002      57.055999999999997
   325   1                  10.698      65.970999999999989      58.839000000000006
   326   1      12.481000000000002      64.188000000000002      58.839000000000006
   327   1      12.481000000000002      65.970999999999989      57.055999999999997
   328   1                  10.698      64.188000000000002      60.621999999999993
   329   1                  10.698      65.970999999999989      62.405000000000001
   330   1      12.481000000000002      64.188000000000002      62.405000000000001
   331   1      12.481000000000002      65.970999999999989      60.621999999999993
   332   1                  10.698      64.188000000000002      64.188000000000002
   333   1      12.481000000000002      64.188000000000002      65.970999999999989
   334   1      12.481000000000002      65.970999999999989      64.188000000000002
   335   1      12.481000000000002      67.754000000000005      51.706999999999994
   336   1                  10.698      67.754000000000005      53.490000000000002
   337   1                  10.698      69.537000000000006      55.273000000000003
   338   1      12.481000000000002      67.754000000000005      55.273000000000003
   339   1      12.481000000000002      69.537000000000006      53.490000000000002
   340   1                  10.698      67.754000000000005      57.055999999999997
   341   1                  10.698      69.537000000000006      58.839000000000006
   342   1      12.481000000000002      67.754000000000005      58.839000000000006
   343   1      12.481000000000002      69.537000000000006      57.055999999999997
   344   1                  10.698      67.754000000000005      60.621999999999993
   345   1      12.481000000000002      67.754000000000005      62.405000000000001
   346   1      12.481000000000002      69.537000000000006      60.621999999999993
   347   1      12.481000000000002      71.319999999999993      55.273000000000003
   348   1      12.481000000000002      71.319999999999993      58.839000000000006
   349   1      14.264000000000003      41.008999999999993      55.273000000000003
   350   1      16.047000000000004      39.225999999999999      55.273000000000003
   351   1      16.047000000000004      41.008999999999993      53.490000000000002
   352   1      14.264000000000003      41.008999999999993      58.839000000000006
   353   1      16.047000000000004      39.225999999999999      58.839000000000006
   354   1      16.047000000000004      41.008999999999993      57.055999999999997
   355   1      16.047000000000004      41.008999999999993      60.621999999999993
   356   1      16.047000000000004      44.575000000000003      46.357999999999997
   357   1      14.264000000000003      44.575000000000003      51.706999999999994
   358   1      16.047000000000004      42.792000000000002      51.706999999999994