model_files/Co/Co_30000/Co_431/data.Co_431_hcp_29685 (written by ASE) 

29685 	 atoms 
1  atom types
0.0                      70  xlo xhi
0.0                      70  ylo yhi
0.0                      70  zlo zhi


Atoms 

     1   1      1.2549999999999955      31.374999999999993      35.139999999999993
     2   1      69.999999999999986      33.884999999999998      33.884999999999998
     3   1      1.2549999999999955      32.629999999999995      33.884999999999998
     4   1      1.2549999999999955      33.884999999999998      32.629999999999995
     5   1      69.999999999999986      32.629999999999995      35.139999999999993
     6   1      69.999999999999986      33.884999999999998      36.394999999999996
     7   1      1.2549999999999955      32.629999999999995      36.394999999999996
     8   1      1.2549999999999955      33.884999999999998      35.139999999999993
     9   1      1.2549999999999955      33.884999999999998      37.649999999999991
    10   1      1.2549999999999955      35.139999999999993      31.374999999999993
    11   1      69.999999999999986      35.139999999999993      32.629999999999995
    12   1      69.999999999999986      36.394999999999996      33.884999999999998
    13   1      1.2549999999999955      35.139999999999993      33.884999999999998
    14   1      1.2549999999999955      36.394999999999996      32.629999999999995
    15   1      69.999999999999986      35.139999999999993      35.139999999999993
    16   1      69.999999999999986      36.394999999999996      36.394999999999996
    17   1      1.2549999999999955      35.139999999999993      36.394999999999996
    18   1      1.2549999999999955      36.394999999999996      35.139999999999993
    19   1      69.999999999999986      35.139999999999993      37.649999999999991
    20   1      1.2549999999999955      35.139999999999993      38.904999999999994
    21   1      1.2549999999999955      36.394999999999996      37.649999999999991
    22   1      1.2549999999999955      37.649999999999991      33.884999999999998
    23   1      69.999999999999986      37.649999999999991      35.139999999999993
    24   1      1.2549999999999955      37.649999999999991      36.394999999999996
    25   1      1.2549999999999955      38.904999999999994      35.139999999999993
    26   1      3.7649999999999935      28.864999999999988      32.629999999999995
    27   1      3.7649999999999935      28.864999999999988      35.139999999999993
    28   1      3.7649999999999935      28.864999999999988      37.649999999999991
    29   1       2.509999999999998      31.374999999999993      31.374999999999993
    30   1      3.7649999999999935       30.11999999999999      31.374999999999993
    31   1      3.7649999999999935      31.374999999999993       30.11999999999999
    32   1       2.509999999999998       30.11999999999999      32.629999999999995
    33   1       2.509999999999998      31.374999999999993      33.884999999999998
    34   1      3.7649999999999935       30.11999999999999      33.884999999999998
    35   1      3.7649999999999935      31.374999999999993      32.629999999999995
    36   1       2.509999999999998       30.11999999999999      35.139999999999993
    37   1       2.509999999999998      31.374999999999993      36.394999999999996
    38   1      3.7649999999999935       30.11999999999999      36.394999999999996
    39   1      3.7649999999999935      31.374999999999993      35.139999999999993
    40   1       2.509999999999998       30.11999999999999      37.649999999999991
    41   1       2.509999999999998      31.374999999999993      38.904999999999994
    42   1      3.7649999999999935       30.11999999999999      38.904999999999994
    43   1      3.7649999999999935      31.374999999999993      37.649999999999991
    44   1      3.7649999999999935      31.374999999999993      40.159999999999982
    45   1      3.7649999999999935      32.629999999999995      28.864999999999988
    46   1       2.509999999999998      32.629999999999995       30.11999999999999
    47   1       2.509999999999998      33.884999999999998      31.374999999999993
    48   1      3.7649999999999935      32.629999999999995      31.374999999999993
    49   1      3.7649999999999935      33.884999999999998       30.11999999999999
    50   1       2.509999999999998      32.629999999999995      32.629999999999995
    51   1       2.509999999999998      33.884999999999998      33.884999999999998
    52   1      3.7649999999999935      32.629999999999995      33.884999999999998
    53   1      3.7649999999999935      33.884999999999998      32.629999999999995
    54   1       2.509999999999998      32.629999999999995      35.139999999999993
    55   1       2.509999999999998      33.884999999999998      36.394999999999996
    56   1      3.7649999999999935      32.629999999999995      36.394999999999996
    57   1      3.7649999999999935      33.884999999999998      35.139999999999993
    58   1       2.509999999999998      32.629999999999995      37.649999999999991
    59   1       2.509999999999998      33.884999999999998      38.904999999999994
    60   1      3.7649999999999935      32.629999999999995      38.904999999999994
    61   1      3.7649999999999935      33.884999999999998      37.649999999999991
    62   1       2.509999999999998      32.629999999999995      40.159999999999982
    63   1      3.7649999999999935      32.629999999999995      41.414999999999992
    64   1      3.7649999999999935      33.884999999999998      40.159999999999982
    65   1      3.7649999999999935      35.139999999999993      28.864999999999988
    66   1       2.509999999999998      35.139999999999993       30.11999999999999
    67   1       2.509999999999998      36.394999999999996      31.374999999999993
    68   1      3.7649999999999935      35.139999999999993      31.374999999999993
    69   1      3.7649999999999935      36.394999999999996       30.11999999999999
    70   1       2.509999999999998      35.139999999999993      32.629999999999995
    71   1       2.509999999999998      36.394999999999996      33.884999999999998
    72   1      3.7649999999999935      35.139999999999993      33.884999999999998
    73   1      3.7649999999999935      36.394999999999996      32.629999999999995
    74   1       2.509999999999998      35.139999999999993      35.139999999999993
    75   1       2.509999999999998      36.394999999999996      36.394999999999996
    76   1      3.7649999999999935      35.139999999999993      36.394999999999996
    77   1      3.7649999999999935      36.394999999999996      35.139999999999993
    78   1       2.509999999999998      35.139999999999993      37.649999999999991
    79   1       2.509999999999998      36.394999999999996      38.904999999999994
    80   1      3.7649999999999935      35.139999999999993      38.904999999999994
    81   1      3.7649999999999935      36.394999999999996      37.649999999999991
    82   1       2.509999999999998      35.139999999999993      40.159999999999982
    83   1      3.7649999999999935      35.139999999999993      41.414999999999992
    84   1      3.7649999999999935      36.394999999999996      40.159999999999982
    85   1      3.7649999999999935      37.649999999999991      28.864999999999988
    86   1       2.509999999999998      37.649999999999991       30.11999999999999
    87   1       2.509999999999998      38.904999999999994      31.374999999999993
    88   1      3.7649999999999935      37.649999999999991      31.374999999999993
    89   1      3.7649999999999935      38.904999999999994       30.11999999999999
    90   1       2.509999999999998      37.649999999999991      32.629999999999995
    91   1       2.509999999999998      38.904999999999994      33.884999999999998
    92   1      3.7649999999999935      37.649999999999991      33.884999999999998
    93   1      3.7649999999999935      38.904999999999994      32.629999999999995
    94   1       2.509999999999998      37.649999999999991      35.139999999999993
    95   1       2.509999999999998      38.904999999999994      36.394999999999996
    96   1      3.7649999999999935      37.649999999999991      36.394999999999996
    97   1      3.7649999999999935      38.904999999999994      35.139999999999993
    98   1       2.509999999999998      37.649999999999991      37.649999999999991
    99   1       2.509999999999998      38.904999999999994      38.904999999999994
   100   1      3.7649999999999935      37.649999999999991      38.904999999999994
   101   1      3.7649999999999935      38.904999999999994      37.649999999999991
   102   1       2.509999999999998      37.649999999999991      40.159999999999982
   103   1      3.7649999999999935      37.649999999999991      41.414999999999992
   104   1      3.7649999999999935      38.904999999999994      40.159999999999982
   105   1      3.7649999999999935      40.159999999999982      31.374999999999993
   106   1       2.509999999999998      40.159999999999982      32.629999999999995
   107   1      3.7649999999999935      40.159999999999982      33.884999999999998
   108   1      3.7649999999999935      41.414999999999992      32.629999999999995
   109   1       2.509999999999998      40.159999999999982      35.139999999999993
   110   1      3.7649999999999935      40.159999999999982      36.394999999999996
   111   1      3.7649999999999935      41.414999999999992      35.139999999999993
   112   1       2.509999999999998      40.159999999999982      37.649999999999991
   113   1      3.7649999999999935      40.159999999999982      38.904999999999994
   114   1      3.7649999999999935      41.414999999999992      37.649999999999991
   115   1       6.274999999999995      26.354999999999993       30.11999999999999
   116   1       5.019999999999996      26.354999999999993      33.884999999999998
   117   1       6.274999999999995      25.099999999999994      33.884999999999998
   118   1       6.274999999999995      26.354999999999993      32.629999999999995
   119   1       5.019999999999996      26.354999999999993      36.394999999999996
   120   1       6.274999999999995      25.099999999999994      36.394999999999996
   121   1       6.274999999999995      26.354999999999993      35.139999999999993
   122   1       6.274999999999995      26.354999999999993      37.649999999999991
   123   1       6.274999999999995      26.354999999999993      40.159999999999982
   124   1       5.019999999999996      28.864999999999988      28.864999999999988
   125   1       6.274999999999995      27.609999999999992      28.864999999999988
   126   1       6.274999999999995      28.864999999999988      27.609999999999992
   127   1       5.019999999999996      27.609999999999992       30.11999999999999
   128   1       5.019999999999996      28.864999999999988      31.374999999999993
   129   1       6.274999999999995      27.609999999999992      31.374999999999993
   130   1       6.274999999999995      28.864999999999988       30.11999999999999
   131   1       5.019999999999996      27.609999999999992      32.629999999999995
   132   1       5.019999999999996      28.864999999999988      33.884999999999998
   133   1       6.274999999999995      27.609999999999992      33.884999999999998
   134   1       6.274999999999995      28.864999999999988      32.629999999999995
   135   1       5.019999999999996      27.609999999999992      35.139999999999993
   136   1       5.019999999999996      28.864999999999988      36.394999999999996
   137   1       6.274999999999995      27.609999999999992      36.394999999999996
   138   1       6.274999999999995      28.864999999999988      35.139999999999993
   139   1       5.019999999999996      27.609999999999992      37.649999999999991
   140   1       5.019999999999996      28.864999999999988      38.904999999999994
   141   1       6.274999999999995      27.609999999999992      38.904999999999994
   142   1       6.274999999999995      28.864999999999988      37.649999999999991
   143   1       5.019999999999996      27.609999999999992      40.159999999999982
   144   1       5.019999999999996      28.864999999999988      41.414999999999992
   145   1       6.274999999999995      27.609999999999992      41.414999999999992
   146   1       6.274999999999995      28.864999999999988      40.159999999999982
   147   1       6.274999999999995      28.864999999999988       42.66999999999998
   148   1       6.274999999999995       30.11999999999999      26.354999999999993
   149   1       5.019999999999996       30.11999999999999      27.609999999999992
   150   1       5.019999999999996      31.374999999999993      28.864999999999988
   151   1       6.274999999999995       30.11999999999999      28.864999999999988
   152   1       6.274999999999995      31.374999999999993      27.609999999999992
   153   1       5.019999999999996       30.11999999999999       30.11999999999999
   154   1       5.019999999999996      31.374999999999993      31.374999999999993
   155   1       6.274999999999995       30.11999999999999      31.374999999999993
   156   1       6.274999999999995      31.374999999999993       30.11999999999999
   157   1       5.019999999999996       30.11999999999999      32.629999999999995
   158   1       5.019999999999996      31.374999999999993      33.884999999999998
   159   1       6.274999999999995       30.11999999999999      33.884999999999998
   160   1       6.274999999999995      31.374999999999993      32.629999999999995
   161   1       5.019999999999996       30.11999999999999      35.139999999999993
   162   1       5.019999999999996      31.374999999999993      36.394999999999996
   163   1       6.274999999999995       30.11999999999999      36.394999999999996
   164   1       6.274999999999995      31.374999999999993      35.139999999999993
   165   1       5.019999999999996       30.11999999999999      37.649999999999991
   166   1       5.019999999999996      31.374999999999993      38.904999999999994
   167   1       6.274999999999995       30.11999999999999      38.904999999999994
   168   1       6.274999999999995      31.374999999999993      37.649999999999991
   169   1       5.019999999999996       30.11999999999999      40.159999999999982
   170   1       5.019999999999996      31.374999999999993      41.414999999999992
   171   1       6.274999999999995       30.11999999999999      41.414999999999992
   172   1       6.274999999999995      31.374999999999993      40.159999999999982
   173   1       5.019999999999996       30.11999999999999       42.66999999999998
   174   1       6.274999999999995       30.11999999999999       43.92499999999999
   175   1       6.274999999999995      31.374999999999993       42.66999999999998
   176   1       5.019999999999996      33.884999999999998      26.354999999999993
   177   1       6.274999999999995      32.629999999999995      26.354999999999993
   178   1       6.274999999999995      33.884999999999998      25.099999999999994
   179   1       5.019999999999996      32.629999999999995      27.609999999999992
   180   1       5.019999999999996      33.884999999999998      28.864999999999988
   181   1       6.274999999999995      32.629999999999995      28.864999999999988
   182   1       6.274999999999995      33.884999999999998      27.609999999999992
   183   1       5.019999999999996      32.629999999999995       30.11999999999999
   184   1       5.019999999999996      33.884999999999998      31.374999999999993
   185   1       6.274999999999995      32.629999999999995      31.374999999999993
   186   1       6.274999999999995      33.884999999999998       30.11999999999999
   187   1       5.019999999999996      32.629999999999995      32.629999999999995
   188   1       5.019999999999996      33.884999999999998      33.884999999999998
   189   1       6.274999999999995      32.629999999999995      33.884999999999998
   190   1       6.274999999999995      33.884999999999998      32.629999999999995
   191   1       5.019999999999996      32.629999999999995      35.139999999999993
   192   1       5.019999999999996      33.884999999999998      36.394999999999996
   193   1       6.274999999999995      32.629999999999995      36.394999999999996
   194   1       6.274999999999995      33.884999999999998      35.139999999999993
   195   1       5.019999999999996      32.629999999999995      37.649999999999991
   196   1       5.019999999999996      33.884999999999998      38.904999999999994
   197   1       6.274999999999995      32.629999999999995      38.904999999999994
   198   1       6.274999999999995      33.884999999999998      37.649999999999991
   199   1       5.019999999999996      32.629999999999995      40.159999999999982
   200   1       5.019999999999996      33.884999999999998      41.414999999999992
   201   1       6.274999999999995      32.629999999999995      41.414999999999992
   202   1       6.274999999999995      33.884999999999998      40.159999999999982
   203   1       5.019999999999996      32.629999999999995       42.66999999999998
   204   1       5.019999999999996      33.884999999999998       43.92499999999999
   205   1       6.274999999999995      32.629999999999995       43.92499999999999
   206   1       6.274999999999995      33.884999999999998       42.66999999999998
   207   1       6.274999999999995      33.884999999999998      45.179999999999993
   208   1       5.019999999999996      36.394999999999996      26.354999999999993
   209   1       6.274999999999995      35.139999999999993      26.354999999999993
   210   1       6.274999999999995      36.394999999999996      25.099999999999994
   211   1       5.019999999999996      35.139999999999993      27.609999999999992
   212   1       5.019999999999996      36.394999999999996      28.864999999999988
   213   1       6.274999999999995      35.139999999999993      28.864999999999988
   214   1       6.274999999999995      36.394999999999996      27.609999999999992
   215   1       5.019999999999996      35.139999999999993       30.11999999999999
   216   1       5.019999999999996      36.394999999999996      31.374999999999993
   217   1       6.274999999999995      35.139999999999993      31.374999999999993
   218   1       6.274999999999995      36.394999999999996       30.11999999999999
   219   1       5.019999999999996      35.139999999999993      32.629999999999995
   220   1       5.019999999999996      36.394999999999996      33.884999999999998
   221   1       6.274999999999995      35.139999999999993      33.884999999999998
   222   1       6.274999999999995      36.394999999999996      32.629999999999995
   223   1       5.019999999999996      35.139999999999993      35.139999999999993
   224   1       5.019999999999996      36.394999999999996      36.394999999999996
   225   1       6.274999999999995      35.139999999999993      36.394999999999996
   226   1       6.274999999999995      36.394999999999996      35.139999999999993
   227   1       5.019999999999996      35.139999999999993      37.649999999999991
   228   1       5.019999999999996      36.394999999999996      38.904999999999994
   229   1       6.274999999999995      35.139999999999993      38.904999999999994
   230   1       6.274999999999995      36.394999999999996      37.649999999999991
   231   1       5.019999999999996      35.139999999999993      40.159999999999982
   232   1       5.019999999999996      36.394999999999996      41.414999999999992
   233   1       6.274999999999995      35.139999999999993      41.414999999999992
   234   1       6.274999999999995      36.394999999999996      40.159999999999982
   235   1       5.019999999999996      35.139999999999993       42.66999999999998
   236   1       5.019999999999996      36.394999999999996       43.92499999999999
   237   1       6.274999999999995      35.139999999999993       43.92499999999999
   238   1       6.274999999999995      36.394999999999996       42.66999999999998
   239   1       6.274999999999995      36.394999999999996      45.179999999999993
   240   1       6.274999999999995      37.649999999999991      26.354999999999993
   241   1       5.019999999999996      37.649999999999991      27.609999999999992
   242   1       5.019999999999996      38.904999999999994      28.864999999999988
   243   1       6.274999999999995      37.649999999999991      28.864999999999988
   244   1       6.274999999999995      38.904999999999994      27.609999999999992
   245   1       5.019999999999996      37.649999999999991       30.11999999999999
   246   1       5.019999999999996      38.904999999999994      31.374999999999993
   247   1       6.274999999999995      37.649999999999991      31.374999999999993
   248   1       6.274999999999995      38.904999999999994       30.11999999999999
   249   1       5.019999999999996      37.649999999999991      32.629999999999995
   250   1       5.019999999999996      38.904999999999994      33.884999999999998
   251   1       6.274999999999995      37.649999999999991      33.884999999999998
   252   1       6.274999999999995      38.904999999999994      32.629999999999995
   253   1       5.019999999999996      37.649999999999991      35.139999999999993
   254   1       5.019999999999996      38.904999999999994      36.394999999999996
   255   1       6.274999999999995      37.649999999999991      36.394999999999996
   256   1       6.274999999999995      38.904999999999994      35.139999999999993
   257   1       5.019999999999996      37.649999999999991      37.649999999999991
   258   1       5.019999999999996      38.904999999999994      38.904999999999994
   259   1       6.274999999999995      37.649999999999991      38.904999999999994
   260   1       6.274999999999995      38.904999999999994      37.649999999999991
   261   1       5.019999999999996      37.649999999999991      40.159999999999982
   262   1       5.019999999999996      38.904999999999994      41.414999999999992
   263   1       6.274999999999995      37.649999999999991      41.414999999999992
   264   1       6.274999999999995      38.904999999999994      40.159999999999982
   265   1       5.019999999999996      37.649999999999991       42.66999999999998
   266   1       6.274999999999995      37.649999999999991       43.92499999999999
   267   1       6.274999999999995      38.904999999999994       42.66999999999998
   268   1       6.274999999999995      40.159999999999982      26.354999999999993
   269   1       5.019999999999996      40.159999999999982      27.609999999999992
   270   1       5.019999999999996      41.414999999999992      28.864999999999988
   271   1       6.274999999999995      40.159999999999982      28.864999999999988
   272   1       6.274999999999995      41.414999999999992      27.609999999999992
   273   1       5.019999999999996      40.159999999999982       30.11999999999999
   274   1       5.019999999999996      41.414999999999992      31.374999999999993
   275   1       6.274999999999995      40.159999999999982      31.374999999999993
   276   1       6.274999999999995      41.414999999999992       30.11999999999999
   277   1       5.019999999999996      40.159999999999982      32.629999999999995
   278   1       5.019999999999996      41.414999999999992      33.884999999999998
   279   1       6.274999999999995      40.159999999999982      33.884999999999998
   280   1       6.274999999999995      41.414999999999992      32.629999999999995
   281   1       5.019999999999996      40.159999999999982      35.139999999999993
   282   1       5.019999999999996      41.414999999999992      36.394999999999996
   283   1       6.274999999999995      40.159999999999982      36.394999999999996
   284   1       6.274999999999995      41.414999999999992      35.139999999999993
   285   1       5.019999999999996      40.159999999999982      37.649999999999991
   286   1       5.019999999999996      41.414999999999992      38.904999999999994
   287   1       6.274999999999995      40.159999999999982      38.904999999999994
   288   1       6.274999999999995      41.414999999999992      37.649999999999991
   289   1       5.019999999999996      40.159999999999982      40.159999999999982
   290   1       5.019999999999996      41.414999999999992      41.414999999999992
   291   1       6.274999999999995      40.159999999999982      41.414999999999992
   292   1       6.274999999999995      41.414999999999992      40.159999999999982
   293   1       5.019999999999996      40.159999999999982       42.66999999999998
   294   1       6.274999999999995      40.159999999999982       43.92499999999999
   295   1       6.274999999999995      41.414999999999992       42.66999999999998
   296   1       6.274999999999995       42.66999999999998      28.864999999999988
   297   1       5.019999999999996       42.66999999999998       30.11999999999999
   298   1       6.274999999999995       42.66999999999998      31.374999999999993
   299   1       6.274999999999995       43.92499999999999       30.11999999999999
   300   1       5.019999999999996       42.66999999999998      32.629999999999995
   301   1       5.019999999999996       43.92499999999999      33.884999999999998
   302   1       6.274999999999995       42.66999999999998      33.884999999999998
   303   1       6.274999999999995       43.92499999999999      32.629999999999995
   304   1       5.019999999999996       42.66999999999998      35.139999999999993
   305   1       5.019999999999996       43.92499999999999      36.394999999999996
   306   1       6.274999999999995       42.66999999999998      36.394999999999996
   307   1       6.274999999999995       43.92499999999999      35.139999999999993
   308   1       5.019999999999996       42.66999999999998      37.649999999999991
   309   1       6.274999999999995       42.66999999999998      38.904999999999994
   310   1       6.274999999999995       43.92499999999999      37.649999999999991
   311   1       5.019999999999996       42.66999999999998      40.159999999999982
   312   1       6.274999999999995       42.66999999999998      41.414999999999992
   313   1       6.274999999999995       43.92499999999999      40.159999999999982
   314   1       6.274999999999995      45.179999999999993      33.884999999999998
   315   1       6.274999999999995      45.179999999999993      36.394999999999996
   316   1       8.784999999999993       21.33499999999999      35.139999999999993
   317   1       8.784999999999993      23.844999999999992      27.609999999999992
   318   1       7.529999999999994      23.844999999999992      31.374999999999993
   319   1       8.784999999999993      22.589999999999993      31.374999999999993
   320   1       8.784999999999993      23.844999999999992       30.11999999999999
   321   1       7.529999999999994      23.844999999999992      33.884999999999998
   322   1       8.784999999999993      22.589999999999993      33.884999999999998
   323   1       8.784999999999993      23.844999999999992      32.629999999999995
   324   1       7.529999999999994      22.589999999999993      35.139999999999993
   325   1       7.529999999999994      23.844999999999992      36.394999999999996
   326   1       8.784999999999993      22.589999999999993      36.394999999999996
   327   1       8.784999999999993      23.844999999999992      35.139999999999993
   328   1       7.529999999999994      23.844999999999992      38.904999999999994
   329   1       8.784999999999993      22.589999999999993      38.904999999999994
   330   1       8.784999999999993      23.844999999999992      37.649999999999991
   331   1       8.784999999999993      23.844999999999992      40.159999999999982
   332   1       8.784999999999993      23.844999999999992       42.66999999999998
   333   1       7.529999999999994      26.354999999999993      26.354999999999993
   334   1       8.784999999999993      25.099999999999994      26.354999999999993
   335   1       8.784999999999993      26.354999999999993      25.099999999999994
   336   1       7.529999999999994      25.099999999999994      27.609999999999992
   337   1       7.529999999999994      26.354999999999993      28.864999999999988
   338   1       8.784999999999993      25.099999999999994      28.864999999999988
   339   1       8.784999999999993      26.354999999999993      27.609999999999992
   340   1       7.529999999999994      25.099999999999994       30.11999999999999
   341   1       7.529999999999994      26.354999999999993      31.374999999999993
   342   1       8.784999999999993      25.099999999999994      31.374999999999993
   343   1       8.784999999999993      26.354999999999993       30.11999999999999
   344   1       7.529999999999994      25.099999999999994      32.629999999999995
   345   1       7.529999999999994      26.354999999999993      33.884999999999998
   346   1       8.784999999999993      25.099999999999994      33.884999999999998
   347   1       8.784999999999993      26.354999999999993      32.629999999999995
   348   1       7.529999999999994      25.099999999999994      35.139999999999993
   349   1       7.529999999999994      26.354999999999993      36.394999999999996
   350   1       8.784999999999993      25.099999999999994      36.394999999999996
   351   1       8.784999999999993      26.354999999999993      35.139999999999993
   352   1       7.529999999999994      25.099999999999994      37.649999999999991
   353   1       7.529999999999994      26.354999999999993      38.904999999999994
   354   1       8.784999999999993      25.099999999999994      38.904999999999994
   355   1       8.784999999999993      26.354999999999993      37.649999999999991
   356   1       7.529999999999994      25.099999999999994      40.159999999999982
   357   1       7.529999999999994      26.354999999999993      41.414999999999992
   358   1       8.784999999999993      25.099999999999994      41.414999999999992