model_files/Fe/Fe_30000/Fe_431/data.Fe_431_fcc_29437 (written by ASE) 

29437 	 atoms 
1  atom types
0.0                     105  xlo xhi
0.0                     105  ylo yhi
0.0                     105  zlo zhi


Atoms 

     1   1      1.4349999999999954      50.225000000000001      50.225000000000001
     2   1      1.4349999999999954      50.225000000000001      53.094999999999992
     3   1      1.4349999999999954      53.094999999999992      50.225000000000001
     4   1      104.99999999999999      51.659999999999997      51.659999999999997
     5   1      1.4349999999999954      53.094999999999992      53.094999999999992
     6   1      4.3049999999999926      44.484999999999999      50.225000000000001
     7   1      4.3049999999999926      44.484999999999999      53.094999999999992
     8   1      4.3049999999999926      47.354999999999997      47.354999999999997
     9   1      4.3049999999999926      47.354999999999997      50.225000000000001
    10   1      2.8699999999999974      45.919999999999987      51.659999999999997
    11   1      4.3049999999999926      47.354999999999997      53.094999999999992
    12   1      4.3049999999999926      47.354999999999997      55.964999999999989
    13   1      4.3049999999999926      50.225000000000001      44.484999999999999
    14   1      4.3049999999999926      50.225000000000001      47.354999999999997
    15   1      2.8699999999999974      48.789999999999992      48.789999999999992
    16   1      4.3049999999999926      50.225000000000001      50.225000000000001
    17   1      2.8699999999999974      48.789999999999992      51.659999999999997
    18   1      4.3049999999999926      50.225000000000001      53.094999999999992
    19   1      2.8699999999999974      48.789999999999992      54.529999999999987
    20   1      4.3049999999999926      50.225000000000001      55.964999999999989
    21   1      4.3049999999999926      50.225000000000001      58.835000000000001
    22   1      4.3049999999999926      53.094999999999992      44.484999999999999
    23   1      2.8699999999999974      51.659999999999997      45.919999999999987
    24   1      4.3049999999999926      53.094999999999992      47.354999999999997
    25   1      2.8699999999999974      51.659999999999997      48.789999999999992
    26   1      4.3049999999999926      53.094999999999992      50.225000000000001
    27   1      2.8699999999999974      51.659999999999997      51.659999999999997
    28   1      4.3049999999999926      53.094999999999992      53.094999999999992
    29   1      2.8699999999999974      51.659999999999997      54.529999999999987
    30   1      4.3049999999999926      53.094999999999992      55.964999999999989
    31   1      2.8699999999999974      51.659999999999997      57.399999999999999
    32   1      4.3049999999999926      53.094999999999992      58.835000000000001
    33   1      4.3049999999999926      55.964999999999989      47.354999999999997
    34   1      2.8699999999999974      54.529999999999987      48.789999999999992
    35   1      4.3049999999999926      55.964999999999989      50.225000000000001
    36   1      2.8699999999999974      54.529999999999987      51.659999999999997
    37   1      4.3049999999999926      55.964999999999989      53.094999999999992
    38   1      2.8699999999999974      54.529999999999987      54.529999999999987
    39   1      4.3049999999999926      55.964999999999989      55.964999999999989
    40   1      4.3049999999999926      58.835000000000001      50.225000000000001
    41   1      2.8699999999999974      57.399999999999999      51.659999999999997
    42   1      4.3049999999999926      58.835000000000001      53.094999999999992
    43   1       7.174999999999998      41.614999999999995      47.354999999999997
    44   1       7.174999999999998      41.614999999999995      50.225000000000001
    45   1       7.174999999999998      41.614999999999995      53.094999999999992
    46   1       7.174999999999998      41.614999999999995      55.964999999999989
    47   1       7.174999999999998      44.484999999999999      44.484999999999999
    48   1       7.174999999999998      44.484999999999999      47.354999999999997
    49   1      5.7399999999999949       43.04999999999999      48.789999999999992
    50   1       7.174999999999998      44.484999999999999      50.225000000000001
    51   1      5.7399999999999949       43.04999999999999      51.659999999999997
    52   1       7.174999999999998      44.484999999999999      53.094999999999992
    53   1      5.7399999999999949       43.04999999999999      54.529999999999987
    54   1       7.174999999999998      44.484999999999999      55.964999999999989
    55   1       7.174999999999998      44.484999999999999      58.835000000000001
    56   1       7.174999999999998      47.354999999999997      41.614999999999995
    57   1       7.174999999999998      47.354999999999997      44.484999999999999
    58   1      5.7399999999999949      45.919999999999987      45.919999999999987
    59   1       7.174999999999998      47.354999999999997      47.354999999999997
    60   1      5.7399999999999949      45.919999999999987      48.789999999999992
    61   1       7.174999999999998      47.354999999999997      50.225000000000001
    62   1      5.7399999999999949      45.919999999999987      51.659999999999997
    63   1       7.174999999999998      47.354999999999997      53.094999999999992
    64   1      5.7399999999999949      45.919999999999987      54.529999999999987
    65   1       7.174999999999998      47.354999999999997      55.964999999999989
    66   1      5.7399999999999949      45.919999999999987      57.399999999999999
    67   1       7.174999999999998      47.354999999999997      58.835000000000001
    68   1       7.174999999999998      47.354999999999997      61.704999999999991
    69   1       7.174999999999998      50.225000000000001      41.614999999999995
    70   1      5.7399999999999949      48.789999999999992       43.04999999999999
    71   1       7.174999999999998      50.225000000000001      44.484999999999999
    72   1      5.7399999999999949      48.789999999999992      45.919999999999987
    73   1       7.174999999999998      50.225000000000001      47.354999999999997
    74   1      5.7399999999999949      48.789999999999992      48.789999999999992
    75   1       7.174999999999998      50.225000000000001      50.225000000000001
    76   1      5.7399999999999949      48.789999999999992      51.659999999999997
    77   1       7.174999999999998      50.225000000000001      53.094999999999992
    78   1      5.7399999999999949      48.789999999999992      54.529999999999987
    79   1       7.174999999999998      50.225000000000001      55.964999999999989
    80   1      5.7399999999999949      48.789999999999992      57.399999999999999
    81   1       7.174999999999998      50.225000000000001      58.835000000000001
    82   1      5.7399999999999949      48.789999999999992      60.269999999999996
    83   1       7.174999999999998      50.225000000000001      61.704999999999991
    84   1       7.174999999999998      53.094999999999992      41.614999999999995
    85   1      5.7399999999999949      51.659999999999997       43.04999999999999
    86   1       7.174999999999998      53.094999999999992      44.484999999999999
    87   1      5.7399999999999949      51.659999999999997      45.919999999999987
    88   1       7.174999999999998      53.094999999999992      47.354999999999997
    89   1      5.7399999999999949      51.659999999999997      48.789999999999992
    90   1       7.174999999999998      53.094999999999992      50.225000000000001
    91   1      5.7399999999999949      51.659999999999997      51.659999999999997
    92   1       7.174999999999998      53.094999999999992      53.094999999999992
    93   1      5.7399999999999949      51.659999999999997      54.529999999999987
    94   1       7.174999999999998      53.094999999999992      55.964999999999989
    95   1      5.7399999999999949      51.659999999999997      57.399999999999999
    96   1       7.174999999999998      53.094999999999992      58.835000000000001
    97   1      5.7399999999999949      51.659999999999997      60.269999999999996
    98   1       7.174999999999998      53.094999999999992      61.704999999999991
    99   1       7.174999999999998      55.964999999999989      41.614999999999995
   100   1      5.7399999999999949      54.529999999999987       43.04999999999999
   101   1       7.174999999999998      55.964999999999989      44.484999999999999
   102   1      5.7399999999999949      54.529999999999987      45.919999999999987
   103   1       7.174999999999998      55.964999999999989      47.354999999999997
   104   1      5.7399999999999949      54.529999999999987      48.789999999999992
   105   1       7.174999999999998      55.964999999999989      50.225000000000001
   106   1      5.7399999999999949      54.529999999999987      51.659999999999997
   107   1       7.174999999999998      55.964999999999989      53.094999999999992
   108   1      5.7399999999999949      54.529999999999987      54.529999999999987
   109   1       7.174999999999998      55.964999999999989      55.964999999999989
   110   1      5.7399999999999949      54.529999999999987      57.399999999999999
   111   1       7.174999999999998      55.964999999999989      58.835000000000001
   112   1      5.7399999999999949      54.529999999999987      60.269999999999996
   113   1       7.174999999999998      55.964999999999989      61.704999999999991
   114   1       7.174999999999998      58.835000000000001      44.484999999999999
   115   1      5.7399999999999949      57.399999999999999      45.919999999999987
   116   1       7.174999999999998      58.835000000000001      47.354999999999997
   117   1      5.7399999999999949      57.399999999999999      48.789999999999992
   118   1       7.174999999999998      58.835000000000001      50.225000000000001
   119   1      5.7399999999999949      57.399999999999999      51.659999999999997
   120   1       7.174999999999998      58.835000000000001      53.094999999999992
   121   1      5.7399999999999949      57.399999999999999      54.529999999999987
   122   1       7.174999999999998      58.835000000000001      55.964999999999989
   123   1      5.7399999999999949      57.399999999999999      57.399999999999999
   124   1       7.174999999999998      58.835000000000001      58.835000000000001
   125   1       7.174999999999998      61.704999999999991      47.354999999999997
   126   1      5.7399999999999949      60.269999999999996      48.789999999999992
   127   1       7.174999999999998      61.704999999999991      50.225000000000001
   128   1      5.7399999999999949      60.269999999999996      51.659999999999997
   129   1       7.174999999999998      61.704999999999991      53.094999999999992
   130   1      5.7399999999999949      60.269999999999996      54.529999999999987
   131   1       7.174999999999998      61.704999999999991      55.964999999999989
   132   1      10.044999999999995       38.74499999999999      44.484999999999999
   133   1      10.044999999999995       38.74499999999999      47.354999999999997
   134   1      10.044999999999995       38.74499999999999      50.225000000000001
   135   1      10.044999999999995       38.74499999999999      53.094999999999992
   136   1      10.044999999999995       38.74499999999999      55.964999999999989
   137   1      10.044999999999995       38.74499999999999      58.835000000000001
   138   1      10.044999999999995      41.614999999999995      41.614999999999995
   139   1      10.044999999999995      41.614999999999995      44.484999999999999
   140   1      8.6099999999999923                   40.18      45.919999999999987
   141   1      10.044999999999995      41.614999999999995      47.354999999999997
   142   1      8.6099999999999923                   40.18      48.789999999999992
   143   1      10.044999999999995      41.614999999999995      50.225000000000001
   144   1      8.6099999999999923                   40.18      51.659999999999997
   145   1      10.044999999999995      41.614999999999995      53.094999999999992
   146   1      8.6099999999999923                   40.18      54.529999999999987
   147   1      10.044999999999995      41.614999999999995      55.964999999999989
   148   1      8.6099999999999923                   40.18      57.399999999999999
   149   1      10.044999999999995      41.614999999999995      58.835000000000001
   150   1      10.044999999999995      41.614999999999995      61.704999999999991
   151   1      10.044999999999995      44.484999999999999       38.74499999999999
   152   1      10.044999999999995      44.484999999999999      41.614999999999995
   153   1      8.6099999999999923       43.04999999999999       43.04999999999999
   154   1      10.044999999999995      44.484999999999999      44.484999999999999
   155   1      8.6099999999999923       43.04999999999999      45.919999999999987
   156   1      10.044999999999995      44.484999999999999      47.354999999999997
   157   1      8.6099999999999923       43.04999999999999      48.789999999999992
   158   1      10.044999999999995      44.484999999999999      50.225000000000001
   159   1      8.6099999999999923       43.04999999999999      51.659999999999997
   160   1      10.044999999999995      44.484999999999999      53.094999999999992
   161   1      8.6099999999999923       43.04999999999999      54.529999999999987
   162   1      10.044999999999995      44.484999999999999      55.964999999999989
   163   1      8.6099999999999923       43.04999999999999      57.399999999999999
   164   1      10.044999999999995      44.484999999999999      58.835000000000001
   165   1      8.6099999999999923       43.04999999999999      60.269999999999996
   166   1      10.044999999999995      44.484999999999999      61.704999999999991
   167   1      10.044999999999995      44.484999999999999      64.575000000000003
   168   1      10.044999999999995      47.354999999999997       38.74499999999999
   169   1      8.6099999999999923      45.919999999999987                   40.18
   170   1      10.044999999999995      47.354999999999997      41.614999999999995
   171   1      8.6099999999999923      45.919999999999987       43.04999999999999
   172   1      10.044999999999995      47.354999999999997      44.484999999999999
   173   1      8.6099999999999923      45.919999999999987      45.919999999999987
   174   1      10.044999999999995      47.354999999999997      47.354999999999997
   175   1      8.6099999999999923      45.919999999999987      48.789999999999992
   176   1      10.044999999999995      47.354999999999997      50.225000000000001
   177   1      8.6099999999999923      45.919999999999987      51.659999999999997
   178   1      10.044999999999995      47.354999999999997      53.094999999999992
   179   1      8.6099999999999923      45.919999999999987      54.529999999999987
   180   1      10.044999999999995      47.354999999999997      55.964999999999989
   181   1      8.6099999999999923      45.919999999999987      57.399999999999999
   182   1      10.044999999999995      47.354999999999997      58.835000000000001
   183   1      8.6099999999999923      45.919999999999987      60.269999999999996
   184   1      10.044999999999995      47.354999999999997      61.704999999999991
   185   1      8.6099999999999923      45.919999999999987      63.139999999999993
   186   1      10.044999999999995      47.354999999999997      64.575000000000003
   187   1      10.044999999999995      50.225000000000001       38.74499999999999
   188   1      8.6099999999999923      48.789999999999992                   40.18
   189   1      10.044999999999995      50.225000000000001      41.614999999999995
   190   1      8.6099999999999923      48.789999999999992       43.04999999999999
   191   1      10.044999999999995      50.225000000000001      44.484999999999999
   192   1      8.6099999999999923      48.789999999999992      45.919999999999987
   193   1      10.044999999999995      50.225000000000001      47.354999999999997
   194   1      8.6099999999999923      48.789999999999992      48.789999999999992
   195   1      10.044999999999995      50.225000000000001      50.225000000000001
   196   1      8.6099999999999923      48.789999999999992      51.659999999999997
   197   1      10.044999999999995      50.225000000000001      53.094999999999992
   198   1      8.6099999999999923      48.789999999999992      54.529999999999987
   199   1      10.044999999999995      50.225000000000001      55.964999999999989
   200   1      8.6099999999999923      48.789999999999992      57.399999999999999
   201   1      10.044999999999995      50.225000000000001      58.835000000000001
   202   1      8.6099999999999923      48.789999999999992      60.269999999999996
   203   1      10.044999999999995      50.225000000000001      61.704999999999991
   204   1      8.6099999999999923      48.789999999999992      63.139999999999993
   205   1      10.044999999999995      50.225000000000001      64.575000000000003
   206   1      10.044999999999995      53.094999999999992       38.74499999999999
   207   1      8.6099999999999923      51.659999999999997                   40.18
   208   1      10.044999999999995      53.094999999999992      41.614999999999995
   209   1      8.6099999999999923      51.659999999999997       43.04999999999999
   210   1      10.044999999999995      53.094999999999992      44.484999999999999
   211   1      8.6099999999999923      51.659999999999997      45.919999999999987
   212   1      10.044999999999995      53.094999999999992      47.354999999999997
   213   1      8.6099999999999923      51.659999999999997      48.789999999999992
   214   1      10.044999999999995      53.094999999999992      50.225000000000001
   215   1      8.6099999999999923      51.659999999999997      51.659999999999997
   216   1      10.044999999999995      53.094999999999992      53.094999999999992
   217   1      8.6099999999999923      51.659999999999997      54.529999999999987
   218   1      10.044999999999995      53.094999999999992      55.964999999999989
   219   1      8.6099999999999923      51.659999999999997      57.399999999999999
   220   1      10.044999999999995      53.094999999999992      58.835000000000001
   221   1      8.6099999999999923      51.659999999999997      60.269999999999996
   222   1      10.044999999999995      53.094999999999992      61.704999999999991
   223   1      8.6099999999999923      51.659999999999997      63.139999999999993
   224   1      10.044999999999995      53.094999999999992      64.575000000000003
   225   1      10.044999999999995      55.964999999999989       38.74499999999999
   226   1      8.6099999999999923      54.529999999999987                   40.18
   227   1      10.044999999999995      55.964999999999989      41.614999999999995
   228   1      8.6099999999999923      54.529999999999987       43.04999999999999
   229   1      10.044999999999995      55.964999999999989      44.484999999999999
   230   1      8.6099999999999923      54.529999999999987      45.919999999999987
   231   1      10.044999999999995      55.964999999999989      47.354999999999997
   232   1      8.6099999999999923      54.529999999999987      48.789999999999992
   233   1      10.044999999999995      55.964999999999989      50.225000000000001
   234   1      8.6099999999999923      54.529999999999987      51.659999999999997
   235   1      10.044999999999995      55.964999999999989      53.094999999999992
   236   1      8.6099999999999923      54.529999999999987      54.529999999999987
   237   1      10.044999999999995      55.964999999999989      55.964999999999989
   238   1      8.6099999999999923      54.529999999999987      57.399999999999999
   239   1      10.044999999999995      55.964999999999989      58.835000000000001
   240   1      8.6099999999999923      54.529999999999987      60.269999999999996
   241   1      10.044999999999995      55.964999999999989      61.704999999999991
   242   1      8.6099999999999923      54.529999999999987      63.139999999999993
   243   1      10.044999999999995      55.964999999999989      64.575000000000003
   244   1      10.044999999999995      58.835000000000001       38.74499999999999
   245   1      8.6099999999999923      57.399999999999999                   40.18
   246   1      10.044999999999995      58.835000000000001      41.614999999999995
   247   1      8.6099999999999923      57.399999999999999       43.04999999999999
   248   1      10.044999999999995      58.835000000000001      44.484999999999999
   249   1      8.6099999999999923      57.399999999999999      45.919999999999987
   250   1      10.044999999999995      58.835000000000001      47.354999999999997
   251   1      8.6099999999999923      57.399999999999999      48.789999999999992
   252   1      10.044999999999995      58.835000000000001      50.225000000000001
   253   1      8.6099999999999923      57.399999999999999      51.659999999999997
   254   1      10.044999999999995      58.835000000000001      53.094999999999992
   255   1      8.6099999999999923      57.399999999999999      54.529999999999987
   256   1      10.044999999999995      58.835000000000001      55.964999999999989
   257   1      8.6099999999999923      57.399999999999999      57.399999999999999
   258   1      10.044999999999995      58.835000000000001      58.835000000000001
   259   1      8.6099999999999923      57.399999999999999      60.269999999999996
   260   1      10.044999999999995      58.835000000000001      61.704999999999991
   261   1      8.6099999999999923      57.399999999999999      63.139999999999993
   262   1      10.044999999999995      58.835000000000001      64.575000000000003
   263   1      10.044999999999995      61.704999999999991      41.614999999999995
   264   1      8.6099999999999923      60.269999999999996       43.04999999999999
   265   1      10.044999999999995      61.704999999999991      44.484999999999999
   266   1      8.6099999999999923      60.269999999999996      45.919999999999987
   267   1      10.044999999999995      61.704999999999991      47.354999999999997
   268   1      8.6099999999999923      60.269999999999996      48.789999999999992
   269   1      10.044999999999995      61.704999999999991      50.225000000000001
   270   1      8.6099999999999923      60.269999999999996      51.659999999999997
   271   1      10.044999999999995      61.704999999999991      53.094999999999992
   272   1      8.6099999999999923      60.269999999999996      54.529999999999987
   273   1      10.044999999999995      61.704999999999991      55.964999999999989
   274   1      8.6099999999999923      60.269999999999996      57.399999999999999
   275   1      10.044999999999995      61.704999999999991      58.835000000000001
   276   1      8.6099999999999923      60.269999999999996      60.269999999999996
   277   1      10.044999999999995      61.704999999999991      61.704999999999991
   278   1      10.044999999999995      64.575000000000003      44.484999999999999
   279   1      8.6099999999999923      63.139999999999993      45.919999999999987
   280   1      10.044999999999995      64.575000000000003      47.354999999999997
   281   1      8.6099999999999923      63.139999999999993      48.789999999999992
   282   1      10.044999999999995      64.575000000000003      50.225000000000001
   283   1      8.6099999999999923      63.139999999999993      51.659999999999997
   284   1      10.044999999999995      64.575000000000003      53.094999999999992
   285   1      8.6099999999999923      63.139999999999993      54.529999999999987
   286   1      10.044999999999995      64.575000000000003      55.964999999999989
   287   1      8.6099999999999923      63.139999999999993      57.399999999999999
   288   1      10.044999999999995      64.575000000000003      58.835000000000001
   289   1      12.914999999999992      33.004999999999995      50.225000000000001
   290   1      12.914999999999992      33.004999999999995      53.094999999999992
   291   1      12.914999999999992      35.874999999999993      41.614999999999995
   292   1      12.914999999999992      35.874999999999993      44.484999999999999
   293   1      12.914999999999992      35.874999999999993      47.354999999999997
   294   1      12.914999999999992      35.874999999999993      50.225000000000001
   295   1      11.479999999999997      34.439999999999998      51.659999999999997
   296   1      12.914999999999992      35.874999999999993      53.094999999999992
   297   1      12.914999999999992      35.874999999999993      55.964999999999989
   298   1      12.914999999999992      35.874999999999993      58.835000000000001
   299   1      12.914999999999992      35.874999999999993      61.704999999999991
   300   1      12.914999999999992       38.74499999999999       38.74499999999999
   301   1      12.914999999999992       38.74499999999999      41.614999999999995
   302   1      11.479999999999997      37.309999999999995       43.04999999999999
   303   1      12.914999999999992       38.74499999999999      44.484999999999999
   304   1      11.479999999999997      37.309999999999995      45.919999999999987
   305   1      12.914999999999992       38.74499999999999      47.354999999999997
   306   1      11.479999999999997      37.309999999999995      48.789999999999992
   307   1      12.914999999999992       38.74499999999999      50.225000000000001
   308   1      11.479999999999997      37.309999999999995      51.659999999999997
   309   1      12.914999999999992       38.74499999999999      53.094999999999992
   310   1      11.479999999999997      37.309999999999995      54.529999999999987
   311   1      12.914999999999992       38.74499999999999      55.964999999999989
   312   1      11.479999999999997      37.309999999999995      57.399999999999999
   313   1      12.914999999999992       38.74499999999999      58.835000000000001
   314   1      11.479999999999997      37.309999999999995      60.269999999999996
   315   1      12.914999999999992       38.74499999999999      61.704999999999991
   316   1      12.914999999999992       38.74499999999999      64.575000000000003
   317   1      12.914999999999992      41.614999999999995      35.874999999999993
   318   1      12.914999999999992      41.614999999999995       38.74499999999999
   319   1      11.479999999999997                   40.18                   40.18
   320   1      12.914999999999992      41.614999999999995      41.614999999999995
   321   1      11.479999999999997                   40.18       43.04999999999999
   322   1      12.914999999999992      41.614999999999995      44.484999999999999
   323   1      11.479999999999997                   40.18      45.919999999999987
   324   1      12.914999999999992      41.614999999999995      47.354999999999997
   325   1      11.479999999999997                   40.18      48.789999999999992
   326   1      12.914999999999992      41.614999999999995      50.225000000000001
   327   1      11.479999999999997                   40.18      51.659999999999997
   328   1      12.914999999999992      41.614999999999995      53.094999999999992
   329   1      11.479999999999997                   40.18      54.529999999999987
   330   1      12.914999999999992      41.614999999999995      55.964999999999989
   331   1      11.479999999999997                   40.18      57.399999999999999
   332   1      12.914999999999992      41.614999999999995      58.835000000000001
   333   1      11.479999999999997                   40.18      60.269999999999996
   334   1      12.914999999999992      41.614999999999995      61.704999999999991
   335   1      11.479999999999997                   40.18      63.139999999999993
   336   1      12.914999999999992      41.614999999999995      64.575000000000003
   337   1      12.914999999999992      41.614999999999995      67.444999999999993
   338   1      12.914999999999992      44.484999999999999      35.874999999999993
   339   1      11.479999999999997       43.04999999999999      37.309999999999995
   340   1      12.914999999999992      44.484999999999999       38.74499999999999
   341   1      11.479999999999997       43.04999999999999                   40.18
   342   1      12.914999999999992      44.484999999999999      41.614999999999995
   343   1      11.479999999999997       43.04999999999999       43.04999999999999
   344   1      12.914999999999992      44.484999999999999      44.484999999999999
   345   1      11.479999999999997       43.04999999999999      45.919999999999987
   346   1      12.914999999999992      44.484999999999999      47.354999999999997
   347   1      11.479999999999997       43.04999999999999      48.789999999999992
   348   1      12.914999999999992      44.484999999999999      50.225000000000001
   349   1      11.479999999999997       43.04999999999999      51.659999999999997
   350   1      12.914999999999992      44.484999999999999      53.094999999999992
   351   1      11.479999999999997       43.04999999999999      54.529999999999987
   352   1      12.914999999999992      44.484999999999999      55.964999999999989
   353   1      11.479999999999997       43.04999999999999      57.399999999999999
   354   1      12.914999999999992      44.484999999999999      58.835000000000001
   355   1      11.479999999999997       43.04999999999999      60.269999999999996
   356   1      12.914999999999992      44.484999999999999      61.704999999999991
   357   1      11.479999999999997       43.04999999999999      63.139999999999993
   358   1      12.914999999999992      44.484999999999999      64.575000000000003