model_files/Pd/Pd_30000/Pd_540/data.Pd_540_fcc_29765 (written by ASE) 

29765 	 atoms 
1  atom types
0.0                     108  xlo xhi
0.0                     108  ylo yhi
0.0                     108  zlo zhi


Atoms 

     1   1                       0      52.514999999999993      52.514999999999993
     2   1      1.9450000000000001                   50.57      52.514999999999993
     3   1      1.9450000000000001      52.514999999999993                   50.57
     4   1                       0      52.514999999999993      56.405000000000001
     5   1      1.9450000000000001                   50.57      56.405000000000001
     6   1      1.9450000000000001      52.514999999999993      54.459999999999994
     7   1      1.9450000000000001      52.514999999999993      58.349999999999994
     8   1                       0      56.405000000000001      52.514999999999993
     9   1      1.9450000000000001      54.459999999999994      52.514999999999993
    10   1      1.9450000000000001      56.405000000000001                   50.57
    11   1                       0      54.459999999999994      54.459999999999994
    12   1                       0      56.405000000000001      56.405000000000001
    13   1      1.9450000000000001      54.459999999999994      56.405000000000001
    14   1      1.9450000000000001      56.405000000000001      54.459999999999994
    15   1      1.9450000000000001      56.405000000000001      58.349999999999994
    16   1      1.9450000000000001      58.349999999999994      52.514999999999993
    17   1      1.9450000000000001      58.349999999999994      56.405000000000001
    18   1      3.8900000000000001                  48.625                  48.625
    19   1      5.8350000000000009      46.679999999999993                  48.625
    20   1      5.8350000000000009                  48.625      46.679999999999993
    21   1      3.8900000000000001                  48.625      52.514999999999993
    22   1      5.8350000000000009      46.679999999999993      52.514999999999993
    23   1      5.8350000000000009                  48.625                   50.57
    24   1      3.8900000000000001                  48.625      56.405000000000001
    25   1      5.8350000000000009      46.679999999999993      56.405000000000001
    26   1      5.8350000000000009                  48.625      54.459999999999994
    27   1      3.8900000000000001                  48.625      60.294999999999995
    28   1      5.8350000000000009      46.679999999999993      60.294999999999995
    29   1      5.8350000000000009                  48.625      58.349999999999994
    30   1      5.8350000000000009                  48.625      62.239999999999988
    31   1      3.8900000000000001      52.514999999999993                  48.625
    32   1      5.8350000000000009                   50.57                  48.625
    33   1      5.8350000000000009      52.514999999999993      46.679999999999993
    34   1      3.8900000000000001                   50.57                   50.57
    35   1      3.8900000000000001      52.514999999999993      52.514999999999993
    36   1      5.8350000000000009                   50.57      52.514999999999993
    37   1      5.8350000000000009      52.514999999999993                   50.57
    38   1      3.8900000000000001                   50.57      54.459999999999994
    39   1      3.8900000000000001      52.514999999999993      56.405000000000001
    40   1      5.8350000000000009                   50.57      56.405000000000001
    41   1      5.8350000000000009      52.514999999999993      54.459999999999994
    42   1      3.8900000000000001                   50.57      58.349999999999994
    43   1      3.8900000000000001      52.514999999999993      60.294999999999995
    44   1      5.8350000000000009                   50.57      60.294999999999995
    45   1      5.8350000000000009      52.514999999999993      58.349999999999994
    46   1      5.8350000000000009      52.514999999999993      62.239999999999988
    47   1      3.8900000000000001      56.405000000000001                  48.625
    48   1      5.8350000000000009      54.459999999999994                  48.625
    49   1      5.8350000000000009      56.405000000000001      46.679999999999993
    50   1      3.8900000000000001      54.459999999999994                   50.57
    51   1      3.8900000000000001      56.405000000000001      52.514999999999993
    52   1      5.8350000000000009      54.459999999999994      52.514999999999993
    53   1      5.8350000000000009      56.405000000000001                   50.57
    54   1      3.8900000000000001      54.459999999999994      54.459999999999994
    55   1      3.8900000000000001      56.405000000000001      56.405000000000001
    56   1      5.8350000000000009      54.459999999999994      56.405000000000001
    57   1      5.8350000000000009      56.405000000000001      54.459999999999994
    58   1      3.8900000000000001      54.459999999999994      58.349999999999994
    59   1      3.8900000000000001      56.405000000000001      60.294999999999995
    60   1      5.8350000000000009      54.459999999999994      60.294999999999995
    61   1      5.8350000000000009      56.405000000000001      58.349999999999994
    62   1      5.8350000000000009      56.405000000000001      62.239999999999988
    63   1      3.8900000000000001      60.294999999999995                  48.625
    64   1      5.8350000000000009      58.349999999999994                  48.625
    65   1      5.8350000000000009      60.294999999999995      46.679999999999993
    66   1      3.8900000000000001      58.349999999999994                   50.57
    67   1      3.8900000000000001      60.294999999999995      52.514999999999993
    68   1      5.8350000000000009      58.349999999999994      52.514999999999993
    69   1      5.8350000000000009      60.294999999999995                   50.57
    70   1      3.8900000000000001      58.349999999999994      54.459999999999994
    71   1      3.8900000000000001      60.294999999999995      56.405000000000001
    72   1      5.8350000000000009      58.349999999999994      56.405000000000001
    73   1      5.8350000000000009      60.294999999999995      54.459999999999994
    74   1      3.8900000000000001      58.349999999999994      58.349999999999994
    75   1      3.8900000000000001      60.294999999999995      60.294999999999995
    76   1      5.8350000000000009      58.349999999999994      60.294999999999995
    77   1      5.8350000000000009      60.294999999999995      58.349999999999994
    78   1      5.8350000000000009      60.294999999999995      62.239999999999988
    79   1      5.8350000000000009      62.239999999999988                  48.625
    80   1      5.8350000000000009      62.239999999999988      52.514999999999993
    81   1      5.8350000000000009      62.239999999999988      56.405000000000001
    82   1      5.8350000000000009      62.239999999999988      60.294999999999995
    83   1      9.7250000000000014      40.844999999999992      42.789999999999999
    84   1      9.7250000000000014      40.844999999999992      46.679999999999993
    85   1      9.7250000000000014      40.844999999999992                   50.57
    86   1      9.7250000000000014      40.844999999999992      54.459999999999994
    87   1      9.7250000000000014      40.844999999999992      58.349999999999994
    88   1      9.7250000000000014      40.844999999999992      62.239999999999988
    89   1      9.7250000000000014      40.844999999999992      66.129999999999995
    90   1      9.7250000000000014      42.789999999999999      40.844999999999992
    91   1      7.7800000000000002      42.789999999999999      42.789999999999999
    92   1      7.7800000000000002      44.734999999999999      44.734999999999999
    93   1      9.7250000000000014      42.789999999999999      44.734999999999999
    94   1      9.7250000000000014      44.734999999999999      42.789999999999999
    95   1      7.7800000000000002      42.789999999999999      46.679999999999993
    96   1      7.7800000000000002      44.734999999999999                  48.625
    97   1      9.7250000000000014      42.789999999999999                  48.625
    98   1      9.7250000000000014      44.734999999999999      46.679999999999993
    99   1      7.7800000000000002      42.789999999999999                   50.57
   100   1      7.7800000000000002      44.734999999999999      52.514999999999993
   101   1      9.7250000000000014      42.789999999999999      52.514999999999993
   102   1      9.7250000000000014      44.734999999999999                   50.57
   103   1      7.7800000000000002      42.789999999999999      54.459999999999994
   104   1      7.7800000000000002      44.734999999999999      56.405000000000001
   105   1      9.7250000000000014      42.789999999999999      56.405000000000001
   106   1      9.7250000000000014      44.734999999999999      54.459999999999994
   107   1      7.7800000000000002      42.789999999999999      58.349999999999994
   108   1      7.7800000000000002      44.734999999999999      60.294999999999995
   109   1      9.7250000000000014      42.789999999999999      60.294999999999995
   110   1      9.7250000000000014      44.734999999999999      58.349999999999994
   111   1      7.7800000000000002      42.789999999999999      62.239999999999988
   112   1      7.7800000000000002      44.734999999999999      64.184999999999988
   113   1      9.7250000000000014      42.789999999999999      64.184999999999988
   114   1      9.7250000000000014      44.734999999999999      62.239999999999988
   115   1      7.7800000000000002      42.789999999999999      66.129999999999995
   116   1      9.7250000000000014      42.789999999999999      68.074999999999989
   117   1      9.7250000000000014      44.734999999999999      66.129999999999995
   118   1      9.7250000000000014      46.679999999999993      40.844999999999992
   119   1      7.7800000000000002      46.679999999999993      42.789999999999999
   120   1      7.7800000000000002                  48.625      44.734999999999999
   121   1      9.7250000000000014      46.679999999999993      44.734999999999999
   122   1      9.7250000000000014                  48.625      42.789999999999999
   123   1      7.7800000000000002      46.679999999999993      46.679999999999993
   124   1      7.7800000000000002                  48.625                  48.625
   125   1      9.7250000000000014      46.679999999999993                  48.625
   126   1      9.7250000000000014                  48.625      46.679999999999993
   127   1      7.7800000000000002      46.679999999999993                   50.57
   128   1      7.7800000000000002                  48.625      52.514999999999993
   129   1      9.7250000000000014      46.679999999999993      52.514999999999993
   130   1      9.7250000000000014                  48.625                   50.57
   131   1      7.7800000000000002      46.679999999999993      54.459999999999994
   132   1      7.7800000000000002                  48.625      56.405000000000001
   133   1      9.7250000000000014      46.679999999999993      56.405000000000001
   134   1      9.7250000000000014                  48.625      54.459999999999994
   135   1      7.7800000000000002      46.679999999999993      58.349999999999994
   136   1      7.7800000000000002                  48.625      60.294999999999995
   137   1      9.7250000000000014      46.679999999999993      60.294999999999995
   138   1      9.7250000000000014                  48.625      58.349999999999994
   139   1      7.7800000000000002      46.679999999999993      62.239999999999988
   140   1      7.7800000000000002                  48.625      64.184999999999988
   141   1      9.7250000000000014      46.679999999999993      64.184999999999988
   142   1      9.7250000000000014                  48.625      62.239999999999988
   143   1      7.7800000000000002      46.679999999999993      66.129999999999995
   144   1      9.7250000000000014      46.679999999999993      68.074999999999989
   145   1      9.7250000000000014                  48.625      66.129999999999995
   146   1      9.7250000000000014                   50.57      40.844999999999992
   147   1      7.7800000000000002                   50.57      42.789999999999999
   148   1      7.7800000000000002      52.514999999999993      44.734999999999999
   149   1      9.7250000000000014                   50.57      44.734999999999999
   150   1      9.7250000000000014      52.514999999999993      42.789999999999999
   151   1      7.7800000000000002                   50.57      46.679999999999993
   152   1      7.7800000000000002      52.514999999999993                  48.625
   153   1      9.7250000000000014                   50.57                  48.625
   154   1      9.7250000000000014      52.514999999999993      46.679999999999993
   155   1      7.7800000000000002                   50.57                   50.57
   156   1      7.7800000000000002      52.514999999999993      52.514999999999993
   157   1      9.7250000000000014                   50.57      52.514999999999993
   158   1      9.7250000000000014      52.514999999999993                   50.57
   159   1      7.7800000000000002                   50.57      54.459999999999994
   160   1      7.7800000000000002      52.514999999999993      56.405000000000001
   161   1      9.7250000000000014                   50.57      56.405000000000001
   162   1      9.7250000000000014      52.514999999999993      54.459999999999994
   163   1      7.7800000000000002                   50.57      58.349999999999994
   164   1      7.7800000000000002      52.514999999999993      60.294999999999995
   165   1      9.7250000000000014                   50.57      60.294999999999995
   166   1      9.7250000000000014      52.514999999999993      58.349999999999994
   167   1      7.7800000000000002                   50.57      62.239999999999988
   168   1      7.7800000000000002      52.514999999999993      64.184999999999988
   169   1      9.7250000000000014                   50.57      64.184999999999988
   170   1      9.7250000000000014      52.514999999999993      62.239999999999988
   171   1      7.7800000000000002                   50.57      66.129999999999995
   172   1      9.7250000000000014                   50.57      68.074999999999989
   173   1      9.7250000000000014      52.514999999999993      66.129999999999995
   174   1      9.7250000000000014      54.459999999999994      40.844999999999992
   175   1      7.7800000000000002      54.459999999999994      42.789999999999999
   176   1      7.7800000000000002      56.405000000000001      44.734999999999999
   177   1      9.7250000000000014      54.459999999999994      44.734999999999999
   178   1      9.7250000000000014      56.405000000000001      42.789999999999999
   179   1      7.7800000000000002      54.459999999999994      46.679999999999993
   180   1      7.7800000000000002      56.405000000000001                  48.625
   181   1      9.7250000000000014      54.459999999999994                  48.625
   182   1      9.7250000000000014      56.405000000000001      46.679999999999993
   183   1      7.7800000000000002      54.459999999999994                   50.57
   184   1      7.7800000000000002      56.405000000000001      52.514999999999993
   185   1      9.7250000000000014      54.459999999999994      52.514999999999993
   186   1      9.7250000000000014      56.405000000000001                   50.57
   187   1      7.7800000000000002      54.459999999999994      54.459999999999994
   188   1      7.7800000000000002      56.405000000000001      56.405000000000001
   189   1      9.7250000000000014      54.459999999999994      56.405000000000001
   190   1      9.7250000000000014      56.405000000000001      54.459999999999994
   191   1      7.7800000000000002      54.459999999999994      58.349999999999994
   192   1      7.7800000000000002      56.405000000000001      60.294999999999995
   193   1      9.7250000000000014      54.459999999999994      60.294999999999995
   194   1      9.7250000000000014      56.405000000000001      58.349999999999994
   195   1      7.7800000000000002      54.459999999999994      62.239999999999988
   196   1      7.7800000000000002      56.405000000000001      64.184999999999988
   197   1      9.7250000000000014      54.459999999999994      64.184999999999988
   198   1      9.7250000000000014      56.405000000000001      62.239999999999988
   199   1      7.7800000000000002      54.459999999999994      66.129999999999995
   200   1      9.7250000000000014      54.459999999999994      68.074999999999989
   201   1      9.7250000000000014      56.405000000000001      66.129999999999995
   202   1      9.7250000000000014      58.349999999999994      40.844999999999992
   203   1      7.7800000000000002      58.349999999999994      42.789999999999999
   204   1      7.7800000000000002      60.294999999999995      44.734999999999999
   205   1      9.7250000000000014      58.349999999999994      44.734999999999999
   206   1      9.7250000000000014      60.294999999999995      42.789999999999999
   207   1      7.7800000000000002      58.349999999999994      46.679999999999993
   208   1      7.7800000000000002      60.294999999999995                  48.625
   209   1      9.7250000000000014      58.349999999999994                  48.625
   210   1      9.7250000000000014      60.294999999999995      46.679999999999993
   211   1      7.7800000000000002      58.349999999999994                   50.57
   212   1      7.7800000000000002      60.294999999999995      52.514999999999993
   213   1      9.7250000000000014      58.349999999999994      52.514999999999993
   214   1      9.7250000000000014      60.294999999999995                   50.57
   215   1      7.7800000000000002      58.349999999999994      54.459999999999994
   216   1      7.7800000000000002      60.294999999999995      56.405000000000001
   217   1      9.7250000000000014      58.349999999999994      56.405000000000001
   218   1      9.7250000000000014      60.294999999999995      54.459999999999994
   219   1      7.7800000000000002      58.349999999999994      58.349999999999994
   220   1      7.7800000000000002      60.294999999999995      60.294999999999995
   221   1      9.7250000000000014      58.349999999999994      60.294999999999995
   222   1      9.7250000000000014      60.294999999999995      58.349999999999994
   223   1      7.7800000000000002      58.349999999999994      62.239999999999988
   224   1      7.7800000000000002      60.294999999999995      64.184999999999988
   225   1      9.7250000000000014      58.349999999999994      64.184999999999988
   226   1      9.7250000000000014      60.294999999999995      62.239999999999988
   227   1      7.7800000000000002      58.349999999999994      66.129999999999995
   228   1      9.7250000000000014      58.349999999999994      68.074999999999989
   229   1      9.7250000000000014      60.294999999999995      66.129999999999995
   230   1      9.7250000000000014      62.239999999999988      40.844999999999992
   231   1      7.7800000000000002      62.239999999999988      42.789999999999999
   232   1      7.7800000000000002      64.184999999999988      44.734999999999999
   233   1      9.7250000000000014      62.239999999999988      44.734999999999999
   234   1      9.7250000000000014      64.184999999999988      42.789999999999999
   235   1      7.7800000000000002      62.239999999999988      46.679999999999993
   236   1      7.7800000000000002      64.184999999999988                  48.625
   237   1      9.7250000000000014      62.239999999999988                  48.625
   238   1      9.7250000000000014      64.184999999999988      46.679999999999993
   239   1      7.7800000000000002      62.239999999999988                   50.57
   240   1      7.7800000000000002      64.184999999999988      52.514999999999993
   241   1      9.7250000000000014      62.239999999999988      52.514999999999993
   242   1      9.7250000000000014      64.184999999999988                   50.57
   243   1      7.7800000000000002      62.239999999999988      54.459999999999994
   244   1      7.7800000000000002      64.184999999999988      56.405000000000001
   245   1      9.7250000000000014      62.239999999999988      56.405000000000001
   246   1      9.7250000000000014      64.184999999999988      54.459999999999994
   247   1      7.7800000000000002      62.239999999999988      58.349999999999994
   248   1      7.7800000000000002      64.184999999999988      60.294999999999995
   249   1      9.7250000000000014      62.239999999999988      60.294999999999995
   250   1      9.7250000000000014      64.184999999999988      58.349999999999994
   251   1      7.7800000000000002      62.239999999999988      62.239999999999988
   252   1      7.7800000000000002      64.184999999999988      64.184999999999988
   253   1      9.7250000000000014      62.239999999999988      64.184999999999988
   254   1      9.7250000000000014      64.184999999999988      62.239999999999988
   255   1      7.7800000000000002      62.239999999999988      66.129999999999995
   256   1      9.7250000000000014      62.239999999999988      68.074999999999989
   257   1      9.7250000000000014      64.184999999999988      66.129999999999995
   258   1      9.7250000000000014      66.129999999999995      40.844999999999992
   259   1      7.7800000000000002      66.129999999999995      42.789999999999999
   260   1      9.7250000000000014      66.129999999999995      44.734999999999999
   261   1      9.7250000000000014      68.074999999999989      42.789999999999999
   262   1      7.7800000000000002      66.129999999999995      46.679999999999993
   263   1      9.7250000000000014      66.129999999999995                  48.625
   264   1      9.7250000000000014      68.074999999999989      46.679999999999993
   265   1      7.7800000000000002      66.129999999999995                   50.57
   266   1      9.7250000000000014      66.129999999999995      52.514999999999993
   267   1      9.7250000000000014      68.074999999999989                   50.57
   268   1      7.7800000000000002      66.129999999999995      54.459999999999994
   269   1      9.7250000000000014      66.129999999999995      56.405000000000001
   270   1      9.7250000000000014      68.074999999999989      54.459999999999994
   271   1      7.7800000000000002      66.129999999999995      58.349999999999994
   272   1      9.7250000000000014      66.129999999999995      60.294999999999995
   273   1      9.7250000000000014      68.074999999999989      58.349999999999994
   274   1      7.7800000000000002      66.129999999999995      62.239999999999988
   275   1      9.7250000000000014      66.129999999999995      64.184999999999988
   276   1      9.7250000000000014      68.074999999999989      62.239999999999988
   277   1      7.7800000000000002      66.129999999999995      66.129999999999995
   278   1      9.7250000000000014      66.129999999999995      68.074999999999989
   279   1      9.7250000000000014      68.074999999999989      66.129999999999995
   280   1                  13.615      36.954999999999998      38.899999999999999
   281   1                  13.615      36.954999999999998      42.789999999999999
   282   1                  13.615      36.954999999999998      46.679999999999993
   283   1                  13.615      36.954999999999998                   50.57
   284   1                  13.615      36.954999999999998      54.459999999999994
   285   1                  13.615      36.954999999999998      58.349999999999994
   286   1                  13.615      36.954999999999998      62.239999999999988
   287   1                  13.615      36.954999999999998      66.129999999999995
   288   1                  13.615      36.954999999999998      70.019999999999982
   289   1                  13.615      38.899999999999999      36.954999999999998
   290   1      11.670000000000002      38.899999999999999      38.899999999999999
   291   1      11.670000000000002      40.844999999999992      40.844999999999992
   292   1                  13.615      38.899999999999999      40.844999999999992
   293   1                  13.615      40.844999999999992      38.899999999999999
   294   1      11.670000000000002      38.899999999999999      42.789999999999999
   295   1      11.670000000000002      40.844999999999992      44.734999999999999
   296   1                  13.615      38.899999999999999      44.734999999999999
   297   1                  13.615      40.844999999999992      42.789999999999999
   298   1      11.670000000000002      38.899999999999999      46.679999999999993
   299   1      11.670000000000002      40.844999999999992                  48.625
   300   1                  13.615      38.899999999999999                  48.625
   301   1                  13.615      40.844999999999992      46.679999999999993
   302   1      11.670000000000002      38.899999999999999                   50.57
   303   1      11.670000000000002      40.844999999999992      52.514999999999993
   304   1                  13.615      38.899999999999999      52.514999999999993
   305   1                  13.615      40.844999999999992                   50.57
   306   1      11.670000000000002      38.899999999999999      54.459999999999994
   307   1      11.670000000000002      40.844999999999992      56.405000000000001
   308   1                  13.615      38.899999999999999      56.405000000000001
   309   1                  13.615      40.844999999999992      54.459999999999994
   310   1      11.670000000000002      38.899999999999999      58.349999999999994
   311   1      11.670000000000002      40.844999999999992      60.294999999999995
   312   1                  13.615      38.899999999999999      60.294999999999995
   313   1                  13.615      40.844999999999992      58.349999999999994
   314   1      11.670000000000002      38.899999999999999      62.239999999999988
   315   1      11.670000000000002      40.844999999999992      64.184999999999988
   316   1                  13.615      38.899999999999999      64.184999999999988
   317   1                  13.615      40.844999999999992      62.239999999999988
   318   1      11.670000000000002      38.899999999999999      66.129999999999995
   319   1      11.670000000000002      40.844999999999992      68.074999999999989
   320   1                  13.615      38.899999999999999      68.074999999999989
   321   1                  13.615      40.844999999999992      66.129999999999995
   322   1      11.670000000000002      38.899999999999999      70.019999999999982
   323   1                  13.615      38.899999999999999      71.964999999999989
   324   1                  13.615      40.844999999999992      70.019999999999982
   325   1                  13.615      42.789999999999999      36.954999999999998
   326   1      11.670000000000002      42.789999999999999      38.899999999999999
   327   1      11.670000000000002      44.734999999999999      40.844999999999992
   328   1                  13.615      42.789999999999999      40.844999999999992
   329   1                  13.615      44.734999999999999      38.899999999999999
   330   1      11.670000000000002      42.789999999999999      42.789999999999999
   331   1      11.670000000000002      44.734999999999999      44.734999999999999
   332   1                  13.615      42.789999999999999      44.734999999999999
   333   1                  13.615      44.734999999999999      42.789999999999999
   334   1      11.670000000000002      42.789999999999999      46.679999999999993
   335   1      11.670000000000002      44.734999999999999                  48.625
   336   1                  13.615      42.789999999999999                  48.625
   337   1                  13.615      44.734999999999999      46.679999999999993
   338   1      11.670000000000002      42.789999999999999                   50.57
   339   1      11.670000000000002      44.734999999999999      52.514999999999993
   340   1                  13.615      42.789999999999999      52.514999999999993
   341   1                  13.615      44.734999999999999                   50.57
   342   1      11.670000000000002      42.789999999999999      54.459999999999994
   343   1      11.670000000000002      44.734999999999999      56.405000000000001
   344   1                  13.615      42.789999999999999      56.405000000000001
   345   1                  13.615      44.734999999999999      54.459999999999994
   346   1      11.670000000000002      42.789999999999999      58.349999999999994
   347   1      11.670000000000002      44.734999999999999      60.294999999999995
   348   1                  13.615      42.789999999999999      60.294999999999995
   349   1                  13.615      44.734999999999999      58.349999999999994
   350   1      11.670000000000002      42.789999999999999      62.239999999999988
   351   1      11.670000000000002      44.734999999999999      64.184999999999988
   352   1                  13.615      42.789999999999999      64.184999999999988
   353   1                  13.615      44.734999999999999      62.239999999999988
   354   1      11.670000000000002      42.789999999999999      66.129999999999995
   355   1      11.670000000000002      44.734999999999999      68.074999999999989
   356   1                  13.615      42.789999999999999      68.074999999999989
   357   1                  13.615      44.734999999999999      66.129999999999995
   358   1      11.670000000000002      42.789999999999999      70.019999999999982