model_files/Ag/Ag_30000/Ag_110/data.Ag_110_fcc_31263 (written by ASE) 

31263 	 atoms 
1  atom types
0.0                     122  xlo xhi
0.0                     122  ylo yhi
0.0                     122  zlo zhi


Atoms 

     1   1                       0                  59.305                  59.305
     2   1      2.0449999999999946      57.259999999999991                  59.305
     3   1      2.0449999999999946                  59.305      57.259999999999991
     4   1                       0                  59.305      63.395000000000003
     5   1      2.0449999999999946      57.259999999999991      63.395000000000003
     6   1      2.0449999999999946                  59.305      61.349999999999994
     7   1      2.0449999999999946                  59.305      65.439999999999998
     8   1                       0      63.395000000000003                  59.305
     9   1      2.0449999999999946      61.349999999999994                  59.305
    10   1      2.0449999999999946      63.395000000000003      57.259999999999991
    11   1                       0      61.349999999999994      61.349999999999994
    12   1                       0      63.395000000000003      63.395000000000003
    13   1      2.0449999999999946      61.349999999999994      63.395000000000003
    14   1      2.0449999999999946      63.395000000000003      61.349999999999994
    15   1      2.0449999999999946      63.395000000000003      65.439999999999998
    16   1      2.0449999999999946      65.439999999999998                  59.305
    17   1      2.0449999999999946      65.439999999999998      63.395000000000003
    18   1      4.0899999999999972      55.214999999999996      55.214999999999996
    19   1      6.1349999999999989      53.170000000000002      55.214999999999996
    20   1      6.1349999999999989      55.214999999999996      53.170000000000002
    21   1      4.0899999999999972      55.214999999999996                  59.305
    22   1      6.1349999999999989      53.170000000000002                  59.305
    23   1      6.1349999999999989      55.214999999999996      57.259999999999991
    24   1      4.0899999999999972      55.214999999999996      63.395000000000003
    25   1      6.1349999999999989      53.170000000000002      63.395000000000003
    26   1      6.1349999999999989      55.214999999999996      61.349999999999994
    27   1      4.0899999999999972      55.214999999999996      67.485000000000014
    28   1      6.1349999999999989      53.170000000000002      67.485000000000014
    29   1      6.1349999999999989      55.214999999999996      65.439999999999998
    30   1      6.1349999999999989      55.214999999999996      69.530000000000001
    31   1      4.0899999999999972                  59.305      55.214999999999996
    32   1      6.1349999999999989      57.259999999999991      55.214999999999996
    33   1      6.1349999999999989                  59.305      53.170000000000002
    34   1      4.0899999999999972      57.259999999999991      57.259999999999991
    35   1      4.0899999999999972                  59.305                  59.305
    36   1      6.1349999999999989      57.259999999999991                  59.305
    37   1      6.1349999999999989                  59.305      57.259999999999991
    38   1      4.0899999999999972      57.259999999999991      61.349999999999994
    39   1      4.0899999999999972                  59.305      63.395000000000003
    40   1      6.1349999999999989      57.259999999999991      63.395000000000003
    41   1      6.1349999999999989                  59.305      61.349999999999994
    42   1      4.0899999999999972      57.259999999999991      65.439999999999998
    43   1      4.0899999999999972                  59.305      67.485000000000014
    44   1      6.1349999999999989      57.259999999999991      67.485000000000014
    45   1      6.1349999999999989                  59.305      65.439999999999998
    46   1      6.1349999999999989                  59.305      69.530000000000001
    47   1      4.0899999999999972      63.395000000000003      55.214999999999996
    48   1      6.1349999999999989      61.349999999999994      55.214999999999996
    49   1      6.1349999999999989      63.395000000000003      53.170000000000002
    50   1      4.0899999999999972      61.349999999999994      57.259999999999991
    51   1      4.0899999999999972      63.395000000000003                  59.305
    52   1      6.1349999999999989      61.349999999999994                  59.305
    53   1      6.1349999999999989      63.395000000000003      57.259999999999991
    54   1      4.0899999999999972      61.349999999999994      61.349999999999994
    55   1      4.0899999999999972      63.395000000000003      63.395000000000003
    56   1      6.1349999999999989      61.349999999999994      63.395000000000003
    57   1      6.1349999999999989      63.395000000000003      61.349999999999994
    58   1      4.0899999999999972      61.349999999999994      65.439999999999998
    59   1      4.0899999999999972      63.395000000000003      67.485000000000014
    60   1      6.1349999999999989      61.349999999999994      67.485000000000014
    61   1      6.1349999999999989      63.395000000000003      65.439999999999998
    62   1      6.1349999999999989      63.395000000000003      69.530000000000001
    63   1      4.0899999999999972      67.485000000000014      55.214999999999996
    64   1      6.1349999999999989      65.439999999999998      55.214999999999996
    65   1      6.1349999999999989      67.485000000000014      53.170000000000002
    66   1      4.0899999999999972      65.439999999999998      57.259999999999991
    67   1      4.0899999999999972      67.485000000000014                  59.305
    68   1      6.1349999999999989      65.439999999999998                  59.305
    69   1      6.1349999999999989      67.485000000000014      57.259999999999991
    70   1      4.0899999999999972      65.439999999999998      61.349999999999994
    71   1      4.0899999999999972      67.485000000000014      63.395000000000003
    72   1      6.1349999999999989      65.439999999999998      63.395000000000003
    73   1      6.1349999999999989      67.485000000000014      61.349999999999994
    74   1      4.0899999999999972      65.439999999999998      65.439999999999998
    75   1      4.0899999999999972      67.485000000000014      67.485000000000014
    76   1      6.1349999999999989      65.439999999999998      67.485000000000014
    77   1      6.1349999999999989      67.485000000000014      65.439999999999998
    78   1      6.1349999999999989      67.485000000000014      69.530000000000001
    79   1      6.1349999999999989      69.530000000000001      55.214999999999996
    80   1      6.1349999999999989      69.530000000000001                  59.305
    81   1      6.1349999999999989      69.530000000000001      63.395000000000003
    82   1      6.1349999999999989      69.530000000000001      67.485000000000014
    83   1      8.1799999999999944                  51.125                  51.125
    84   1      10.224999999999994      49.080000000000005                  51.125
    85   1      10.224999999999994                  51.125      49.080000000000005
    86   1      8.1799999999999944                  51.125      55.214999999999996
    87   1      10.224999999999994      49.080000000000005      55.214999999999996
    88   1      10.224999999999994                  51.125      53.170000000000002
    89   1      8.1799999999999944                  51.125                  59.305
    90   1      10.224999999999994      49.080000000000005                  59.305
    91   1      10.224999999999994                  51.125      57.259999999999991
    92   1      8.1799999999999944                  51.125      63.395000000000003
    93   1      10.224999999999994      49.080000000000005      63.395000000000003
    94   1      10.224999999999994                  51.125      61.349999999999994
    95   1      8.1799999999999944                  51.125      67.485000000000014
    96   1      10.224999999999994      49.080000000000005      67.485000000000014
    97   1      10.224999999999994                  51.125      65.439999999999998
    98   1      8.1799999999999944                  51.125      71.575000000000003
    99   1      10.224999999999994      49.080000000000005      71.575000000000003
   100   1      10.224999999999994                  51.125      69.530000000000001
   101   1      10.224999999999994                  51.125       73.61999999999999
   102   1      8.1799999999999944      55.214999999999996                  51.125
   103   1      10.224999999999994      53.170000000000002                  51.125
   104   1      10.224999999999994      55.214999999999996      49.080000000000005
   105   1      8.1799999999999944      53.170000000000002      53.170000000000002
   106   1      8.1799999999999944      55.214999999999996      55.214999999999996
   107   1      10.224999999999994      53.170000000000002      55.214999999999996
   108   1      10.224999999999994      55.214999999999996      53.170000000000002
   109   1      8.1799999999999944      53.170000000000002      57.259999999999991
   110   1      8.1799999999999944      55.214999999999996                  59.305
   111   1      10.224999999999994      53.170000000000002                  59.305
   112   1      10.224999999999994      55.214999999999996      57.259999999999991
   113   1      8.1799999999999944      53.170000000000002      61.349999999999994
   114   1      8.1799999999999944      55.214999999999996      63.395000000000003
   115   1      10.224999999999994      53.170000000000002      63.395000000000003
   116   1      10.224999999999994      55.214999999999996      61.349999999999994
   117   1      8.1799999999999944      53.170000000000002      65.439999999999998
   118   1      8.1799999999999944      55.214999999999996      67.485000000000014
   119   1      10.224999999999994      53.170000000000002      67.485000000000014
   120   1      10.224999999999994      55.214999999999996      65.439999999999998
   121   1      8.1799999999999944      53.170000000000002      69.530000000000001
   122   1      8.1799999999999944      55.214999999999996      71.575000000000003
   123   1      10.224999999999994      53.170000000000002      71.575000000000003
   124   1      10.224999999999994      55.214999999999996      69.530000000000001
   125   1      10.224999999999994      55.214999999999996       73.61999999999999
   126   1      8.1799999999999944                  59.305                  51.125
   127   1      10.224999999999994      57.259999999999991                  51.125
   128   1      10.224999999999994                  59.305      49.080000000000005
   129   1      8.1799999999999944      57.259999999999991      53.170000000000002
   130   1      8.1799999999999944                  59.305      55.214999999999996
   131   1      10.224999999999994      57.259999999999991      55.214999999999996
   132   1      10.224999999999994                  59.305      53.170000000000002
   133   1      8.1799999999999944      57.259999999999991      57.259999999999991
   134   1      8.1799999999999944                  59.305                  59.305
   135   1      10.224999999999994      57.259999999999991                  59.305
   136   1      10.224999999999994                  59.305      57.259999999999991
   137   1      8.1799999999999944      57.259999999999991      61.349999999999994
   138   1      8.1799999999999944                  59.305      63.395000000000003
   139   1      10.224999999999994      57.259999999999991      63.395000000000003
   140   1      10.224999999999994                  59.305      61.349999999999994
   141   1      8.1799999999999944      57.259999999999991      65.439999999999998
   142   1      8.1799999999999944                  59.305      67.485000000000014
   143   1      10.224999999999994      57.259999999999991      67.485000000000014
   144   1      10.224999999999994                  59.305      65.439999999999998
   145   1      8.1799999999999944      57.259999999999991      69.530000000000001
   146   1      8.1799999999999944                  59.305      71.575000000000003
   147   1      10.224999999999994      57.259999999999991      71.575000000000003
   148   1      10.224999999999994                  59.305      69.530000000000001
   149   1      10.224999999999994                  59.305       73.61999999999999
   150   1      8.1799999999999944      63.395000000000003                  51.125
   151   1      10.224999999999994      61.349999999999994                  51.125
   152   1      10.224999999999994      63.395000000000003      49.080000000000005
   153   1      8.1799999999999944      61.349999999999994      53.170000000000002
   154   1      8.1799999999999944      63.395000000000003      55.214999999999996
   155   1      10.224999999999994      61.349999999999994      55.214999999999996
   156   1      10.224999999999994      63.395000000000003      53.170000000000002
   157   1      8.1799999999999944      61.349999999999994      57.259999999999991
   158   1      8.1799999999999944      63.395000000000003                  59.305
   159   1      10.224999999999994      61.349999999999994                  59.305
   160   1      10.224999999999994      63.395000000000003      57.259999999999991
   161   1      8.1799999999999944      61.349999999999994      61.349999999999994
   162   1      8.1799999999999944      63.395000000000003      63.395000000000003
   163   1      10.224999999999994      61.349999999999994      63.395000000000003
   164   1      10.224999999999994      63.395000000000003      61.349999999999994
   165   1      8.1799999999999944      61.349999999999994      65.439999999999998
   166   1      8.1799999999999944      63.395000000000003      67.485000000000014
   167   1      10.224999999999994      61.349999999999994      67.485000000000014
   168   1      10.224999999999994      63.395000000000003      65.439999999999998
   169   1      8.1799999999999944      61.349999999999994      69.530000000000001
   170   1      8.1799999999999944      63.395000000000003      71.575000000000003
   171   1      10.224999999999994      61.349999999999994      71.575000000000003
   172   1      10.224999999999994      63.395000000000003      69.530000000000001
   173   1      10.224999999999994      63.395000000000003       73.61999999999999
   174   1      8.1799999999999944      67.485000000000014                  51.125
   175   1      10.224999999999994      65.439999999999998                  51.125
   176   1      10.224999999999994      67.485000000000014      49.080000000000005
   177   1      8.1799999999999944      65.439999999999998      53.170000000000002
   178   1      8.1799999999999944      67.485000000000014      55.214999999999996
   179   1      10.224999999999994      65.439999999999998      55.214999999999996
   180   1      10.224999999999994      67.485000000000014      53.170000000000002
   181   1      8.1799999999999944      65.439999999999998      57.259999999999991
   182   1      8.1799999999999944      67.485000000000014                  59.305
   183   1      10.224999999999994      65.439999999999998                  59.305
   184   1      10.224999999999994      67.485000000000014      57.259999999999991
   185   1      8.1799999999999944      65.439999999999998      61.349999999999994
   186   1      8.1799999999999944      67.485000000000014      63.395000000000003
   187   1      10.224999999999994      65.439999999999998      63.395000000000003
   188   1      10.224999999999994      67.485000000000014      61.349999999999994
   189   1      8.1799999999999944      65.439999999999998      65.439999999999998
   190   1      8.1799999999999944      67.485000000000014      67.485000000000014
   191   1      10.224999999999994      65.439999999999998      67.485000000000014
   192   1      10.224999999999994      67.485000000000014      65.439999999999998
   193   1      8.1799999999999944      65.439999999999998      69.530000000000001
   194   1      8.1799999999999944      67.485000000000014      71.575000000000003
   195   1      10.224999999999994      65.439999999999998      71.575000000000003
   196   1      10.224999999999994      67.485000000000014      69.530000000000001
   197   1      10.224999999999994      67.485000000000014       73.61999999999999
   198   1      8.1799999999999944      71.575000000000003                  51.125
   199   1      10.224999999999994      69.530000000000001                  51.125
   200   1      10.224999999999994      71.575000000000003      49.080000000000005
   201   1      8.1799999999999944      69.530000000000001      53.170000000000002
   202   1      8.1799999999999944      71.575000000000003      55.214999999999996
   203   1      10.224999999999994      69.530000000000001      55.214999999999996
   204   1      10.224999999999994      71.575000000000003      53.170000000000002
   205   1      8.1799999999999944      69.530000000000001      57.259999999999991
   206   1      8.1799999999999944      71.575000000000003                  59.305
   207   1      10.224999999999994      69.530000000000001                  59.305
   208   1      10.224999999999994      71.575000000000003      57.259999999999991
   209   1      8.1799999999999944      69.530000000000001      61.349999999999994
   210   1      8.1799999999999944      71.575000000000003      63.395000000000003
   211   1      10.224999999999994      69.530000000000001      63.395000000000003
   212   1      10.224999999999994      71.575000000000003      61.349999999999994
   213   1      8.1799999999999944      69.530000000000001      65.439999999999998
   214   1      8.1799999999999944      71.575000000000003      67.485000000000014
   215   1      10.224999999999994      69.530000000000001      67.485000000000014
   216   1      10.224999999999994      71.575000000000003      65.439999999999998
   217   1      8.1799999999999944      69.530000000000001      69.530000000000001
   218   1      8.1799999999999944      71.575000000000003      71.575000000000003
   219   1      10.224999999999994      69.530000000000001      71.575000000000003
   220   1      10.224999999999994      71.575000000000003      69.530000000000001
   221   1      10.224999999999994      71.575000000000003       73.61999999999999
   222   1      10.224999999999994       73.61999999999999                  51.125
   223   1      10.224999999999994       73.61999999999999      55.214999999999996
   224   1      10.224999999999994       73.61999999999999                  59.305
   225   1      10.224999999999994       73.61999999999999      63.395000000000003
   226   1      10.224999999999994       73.61999999999999      67.485000000000014
   227   1      10.224999999999994       73.61999999999999      71.575000000000003
   228   1      12.269999999999998      47.034999999999997      47.034999999999997
   229   1      14.314999999999998      44.989999999999995      47.034999999999997
   230   1      14.314999999999998      47.034999999999997      44.989999999999995
   231   1      12.269999999999998      47.034999999999997                  51.125
   232   1      14.314999999999998      44.989999999999995                  51.125
   233   1      14.314999999999998      47.034999999999997      49.080000000000005
   234   1      12.269999999999998      47.034999999999997      55.214999999999996
   235   1      14.314999999999998      44.989999999999995      55.214999999999996
   236   1      14.314999999999998      47.034999999999997      53.170000000000002
   237   1      12.269999999999998      47.034999999999997                  59.305
   238   1      14.314999999999998      44.989999999999995                  59.305
   239   1      14.314999999999998      47.034999999999997      57.259999999999991
   240   1      12.269999999999998      47.034999999999997      63.395000000000003
   241   1      14.314999999999998      44.989999999999995      63.395000000000003
   242   1      14.314999999999998      47.034999999999997      61.349999999999994
   243   1      12.269999999999998      47.034999999999997      67.485000000000014
   244   1      14.314999999999998      44.989999999999995      67.485000000000014
   245   1      14.314999999999998      47.034999999999997      65.439999999999998
   246   1      12.269999999999998      47.034999999999997      71.575000000000003
   247   1      14.314999999999998      44.989999999999995      71.575000000000003
   248   1      14.314999999999998      47.034999999999997      69.530000000000001
   249   1      12.269999999999998      47.034999999999997      75.664999999999992
   250   1      14.314999999999998      44.989999999999995      75.664999999999992
   251   1      14.314999999999998      47.034999999999997       73.61999999999999
   252   1      14.314999999999998      47.034999999999997      77.710000000000008
   253   1      12.269999999999998                  51.125      47.034999999999997
   254   1      14.314999999999998      49.080000000000005      47.034999999999997
   255   1      14.314999999999998                  51.125      44.989999999999995
   256   1      12.269999999999998      49.080000000000005      49.080000000000005
   257   1      12.269999999999998                  51.125                  51.125
   258   1      14.314999999999998      49.080000000000005                  51.125
   259   1      14.314999999999998                  51.125      49.080000000000005
   260   1      12.269999999999998      49.080000000000005      53.170000000000002
   261   1      12.269999999999998                  51.125      55.214999999999996
   262   1      14.314999999999998      49.080000000000005      55.214999999999996
   263   1      14.314999999999998                  51.125      53.170000000000002
   264   1      12.269999999999998      49.080000000000005      57.259999999999991
   265   1      12.269999999999998                  51.125                  59.305
   266   1      14.314999999999998      49.080000000000005                  59.305
   267   1      14.314999999999998                  51.125      57.259999999999991
   268   1      12.269999999999998      49.080000000000005      61.349999999999994
   269   1      12.269999999999998                  51.125      63.395000000000003
   270   1      14.314999999999998      49.080000000000005      63.395000000000003
   271   1      14.314999999999998                  51.125      61.349999999999994
   272   1      12.269999999999998      49.080000000000005      65.439999999999998
   273   1      12.269999999999998                  51.125      67.485000000000014
   274   1      14.314999999999998      49.080000000000005      67.485000000000014
   275   1      14.314999999999998                  51.125      65.439999999999998
   276   1      12.269999999999998      49.080000000000005      69.530000000000001
   277   1      12.269999999999998                  51.125      71.575000000000003
   278   1      14.314999999999998      49.080000000000005      71.575000000000003
   279   1      14.314999999999998                  51.125      69.530000000000001
   280   1      12.269999999999998      49.080000000000005       73.61999999999999
   281   1      12.269999999999998                  51.125      75.664999999999992
   282   1      14.314999999999998      49.080000000000005      75.664999999999992
   283   1      14.314999999999998                  51.125       73.61999999999999
   284   1      14.314999999999998                  51.125      77.710000000000008
   285   1      12.269999999999998      55.214999999999996      47.034999999999997
   286   1      14.314999999999998      53.170000000000002      47.034999999999997
   287   1      14.314999999999998      55.214999999999996      44.989999999999995
   288   1      12.269999999999998      53.170000000000002      49.080000000000005
   289   1      12.269999999999998      55.214999999999996                  51.125
   290   1      14.314999999999998      53.170000000000002                  51.125
   291   1      14.314999999999998      55.214999999999996      49.080000000000005
   292   1      12.269999999999998      53.170000000000002      53.170000000000002
   293   1      12.269999999999998      55.214999999999996      55.214999999999996
   294   1      14.314999999999998      53.170000000000002      55.214999999999996
   295   1      14.314999999999998      55.214999999999996      53.170000000000002
   296   1      12.269999999999998      53.170000000000002      57.259999999999991
   297   1      12.269999999999998      55.214999999999996                  59.305
   298   1      14.314999999999998      53.170000000000002                  59.305
   299   1      14.314999999999998      55.214999999999996      57.259999999999991
   300   1      12.269999999999998      53.170000000000002      61.349999999999994
   301   1      12.269999999999998      55.214999999999996      63.395000000000003
   302   1      14.314999999999998      53.170000000000002      63.395000000000003
   303   1      14.314999999999998      55.214999999999996      61.349999999999994
   304   1      12.269999999999998      53.170000000000002      65.439999999999998
   305   1      12.269999999999998      55.214999999999996      67.485000000000014
   306   1      14.314999999999998      53.170000000000002      67.485000000000014
   307   1      14.314999999999998      55.214999999999996      65.439999999999998
   308   1      12.269999999999998      53.170000000000002      69.530000000000001
   309   1      12.269999999999998      55.214999999999996      71.575000000000003
   310   1      14.314999999999998      53.170000000000002      71.575000000000003
   311   1      14.314999999999998      55.214999999999996      69.530000000000001
   312   1      12.269999999999998      53.170000000000002       73.61999999999999
   313   1      12.269999999999998      55.214999999999996      75.664999999999992
   314   1      14.314999999999998      53.170000000000002      75.664999999999992
   315   1      14.314999999999998      55.214999999999996       73.61999999999999
   316   1      14.314999999999998      55.214999999999996      77.710000000000008
   317   1      12.269999999999998                  59.305      47.034999999999997
   318   1      14.314999999999998      57.259999999999991      47.034999999999997
   319   1      14.314999999999998                  59.305      44.989999999999995
   320   1      12.269999999999998      57.259999999999991      49.080000000000005
   321   1      12.269999999999998                  59.305                  51.125
   322   1      14.314999999999998      57.259999999999991                  51.125
   323   1      14.314999999999998                  59.305      49.080000000000005
   324   1      12.269999999999998      57.259999999999991      53.170000000000002
   325   1      12.269999999999998                  59.305      55.214999999999996
   326   1      14.314999999999998      57.259999999999991      55.214999999999996
   327   1      14.314999999999998                  59.305      53.170000000000002
   328   1      12.269999999999998      57.259999999999991      57.259999999999991
   329   1      12.269999999999998                  59.305                  59.305
   330   1      14.314999999999998      57.259999999999991                  59.305
   331   1      14.314999999999998                  59.305      57.259999999999991
   332   1      12.269999999999998      57.259999999999991      61.349999999999994
   333   1      12.269999999999998                  59.305      63.395000000000003
   334   1      14.314999999999998      57.259999999999991      63.395000000000003
   335   1      14.314999999999998                  59.305      61.349999999999994
   336   1      12.269999999999998      57.259999999999991      65.439999999999998
   337   1      12.269999999999998                  59.305      67.485000000000014
   338   1      14.314999999999998      57.259999999999991      67.485000000000014
   339   1      14.314999999999998                  59.305      65.439999999999998
   340   1      12.269999999999998      57.259999999999991      69.530000000000001
   341   1      12.269999999999998                  59.305      71.575000000000003
   342   1      14.314999999999998      57.259999999999991      71.575000000000003
   343   1      14.314999999999998                  59.305      69.530000000000001
   344   1      12.269999999999998      57.259999999999991       73.61999999999999
   345   1      12.269999999999998                  59.305      75.664999999999992
   346   1      14.314999999999998      57.259999999999991      75.664999999999992
   347   1      14.314999999999998                  59.305       73.61999999999999
   348   1      14.314999999999998                  59.305      77.710000000000008
   349   1      12.269999999999998      63.395000000000003      47.034999999999997
   350   1      14.314999999999998      61.349999999999994      47.034999999999997
   351   1      14.314999999999998      63.395000000000003      44.989999999999995
   352   1      12.269999999999998      61.349999999999994      49.080000000000005
   353   1      12.269999999999998      63.395000000000003                  51.125
   354   1      14.314999999999998      61.349999999999994                  51.125
   355   1      14.314999999999998      63.395000000000003      49.080000000000005
   356   1      12.269999999999998      61.349999999999994      53.170000000000002
   357   1      12.269999999999998      63.395000000000003      55.214999999999996
   358   1      14.314999999999998      61.349999999999994      55.214999999999996