model_files/Co/Co_3000/Co_430/data.Co_430_hcp_2905 (written by ASE) 

2905 	 atoms 
1  atom types
0.0                      30  xlo xhi
0.0                      30  ylo yhi
0.0                      30  zlo zhi


Atoms 

     1   1      29.999999999999993      13.804999999999993      13.804999999999993
     2   1      1.2549999999999955      12.549999999999994      13.804999999999993
     3   1      1.2549999999999955      13.804999999999993      12.549999999999994
     4   1      29.999999999999993      13.804999999999993      16.314999999999994
     5   1      1.2549999999999955      12.549999999999994      16.314999999999994
     6   1      1.2549999999999955      13.804999999999993      15.059999999999993
     7   1      1.2549999999999955      13.804999999999993      17.569999999999993
     8   1      29.999999999999993      16.314999999999994      13.804999999999993
     9   1      1.2549999999999955      15.059999999999993      13.804999999999993
    10   1      1.2549999999999955      16.314999999999994      12.549999999999994
    11   1      29.999999999999993      15.059999999999993      15.059999999999993
    12   1      29.999999999999993      16.314999999999994      16.314999999999994
    13   1      1.2549999999999955      15.059999999999993      16.314999999999994
    14   1      1.2549999999999955      16.314999999999994      15.059999999999993
    15   1      1.2549999999999955      16.314999999999994      17.569999999999993
    16   1      1.2549999999999955      17.569999999999993      13.804999999999993
    17   1      1.2549999999999955      17.569999999999993      16.314999999999994
    18   1      3.7649999999999935       8.784999999999993      10.039999999999994
    19   1      3.7649999999999935       8.784999999999993      12.549999999999994
    20   1      3.7649999999999935       8.784999999999993      15.059999999999993
    21   1      3.7649999999999935       8.784999999999993      17.569999999999993
    22   1      3.7649999999999935       8.784999999999993      20.079999999999991
    23   1      3.7649999999999935      10.039999999999994       8.784999999999993
    24   1      2.5099999999999945      10.039999999999994      10.039999999999994
    25   1      2.5099999999999945      11.294999999999995      11.294999999999995
    26   1      3.7649999999999935      10.039999999999994      11.294999999999995
    27   1      3.7649999999999935      11.294999999999995      10.039999999999994
    28   1      2.5099999999999945      10.039999999999994      12.549999999999994
    29   1      2.5099999999999945      11.294999999999995      13.804999999999993
    30   1      3.7649999999999935      10.039999999999994      13.804999999999993
    31   1      3.7649999999999935      11.294999999999995      12.549999999999994
    32   1      2.5099999999999945      10.039999999999994      15.059999999999993
    33   1      2.5099999999999945      11.294999999999995      16.314999999999994
    34   1      3.7649999999999935      10.039999999999994      16.314999999999994
    35   1      3.7649999999999935      11.294999999999995      15.059999999999993
    36   1      2.5099999999999945      10.039999999999994      17.569999999999993
    37   1      2.5099999999999945      11.294999999999995      18.824999999999992
    38   1      3.7649999999999935      10.039999999999994      18.824999999999992
    39   1      3.7649999999999935      11.294999999999995      17.569999999999993
    40   1      2.5099999999999945      10.039999999999994      20.079999999999991
    41   1      3.7649999999999935      10.039999999999994      21.334999999999987
    42   1      3.7649999999999935      11.294999999999995      20.079999999999991
    43   1      3.7649999999999935      12.549999999999994       8.784999999999993
    44   1      2.5099999999999945      12.549999999999994      10.039999999999994
    45   1      2.5099999999999945      13.804999999999993      11.294999999999995
    46   1      3.7649999999999935      12.549999999999994      11.294999999999995
    47   1      3.7649999999999935      13.804999999999993      10.039999999999994
    48   1      2.5099999999999945      12.549999999999994      12.549999999999994
    49   1      2.5099999999999945      13.804999999999993      13.804999999999993
    50   1      3.7649999999999935      12.549999999999994      13.804999999999993
    51   1      3.7649999999999935      13.804999999999993      12.549999999999994
    52   1      2.5099999999999945      12.549999999999994      15.059999999999993
    53   1      2.5099999999999945      13.804999999999993      16.314999999999994
    54   1      3.7649999999999935      12.549999999999994      16.314999999999994
    55   1      3.7649999999999935      13.804999999999993      15.059999999999993
    56   1      2.5099999999999945      12.549999999999994      17.569999999999993
    57   1      2.5099999999999945      13.804999999999993      18.824999999999992
    58   1      3.7649999999999935      12.549999999999994      18.824999999999992
    59   1      3.7649999999999935      13.804999999999993      17.569999999999993
    60   1      2.5099999999999945      12.549999999999994      20.079999999999991
    61   1      3.7649999999999935      12.549999999999994      21.334999999999987
    62   1      3.7649999999999935      13.804999999999993      20.079999999999991
    63   1      3.7649999999999935      15.059999999999993       8.784999999999993
    64   1      2.5099999999999945      15.059999999999993      10.039999999999994
    65   1      2.5099999999999945      16.314999999999994      11.294999999999995
    66   1      3.7649999999999935      15.059999999999993      11.294999999999995
    67   1      3.7649999999999935      16.314999999999994      10.039999999999994
    68   1      2.5099999999999945      15.059999999999993      12.549999999999994
    69   1      2.5099999999999945      16.314999999999994      13.804999999999993
    70   1      3.7649999999999935      15.059999999999993      13.804999999999993
    71   1      3.7649999999999935      16.314999999999994      12.549999999999994
    72   1      2.5099999999999945      15.059999999999993      15.059999999999993
    73   1      2.5099999999999945      16.314999999999994      16.314999999999994
    74   1      3.7649999999999935      15.059999999999993      16.314999999999994
    75   1      3.7649999999999935      16.314999999999994      15.059999999999993
    76   1      2.5099999999999945      15.059999999999993      17.569999999999993
    77   1      2.5099999999999945      16.314999999999994      18.824999999999992
    78   1      3.7649999999999935      15.059999999999993      18.824999999999992
    79   1      3.7649999999999935      16.314999999999994      17.569999999999993
    80   1      2.5099999999999945      15.059999999999993      20.079999999999991
    81   1      3.7649999999999935      15.059999999999993      21.334999999999987
    82   1      3.7649999999999935      16.314999999999994      20.079999999999991
    83   1      3.7649999999999935      17.569999999999993       8.784999999999993
    84   1      2.5099999999999945      17.569999999999993      10.039999999999994
    85   1      2.5099999999999945      18.824999999999992      11.294999999999995
    86   1      3.7649999999999935      17.569999999999993      11.294999999999995
    87   1      3.7649999999999935      18.824999999999992      10.039999999999994
    88   1      2.5099999999999945      17.569999999999993      12.549999999999994
    89   1      2.5099999999999945      18.824999999999992      13.804999999999993
    90   1      3.7649999999999935      17.569999999999993      13.804999999999993
    91   1      3.7649999999999935      18.824999999999992      12.549999999999994
    92   1      2.5099999999999945      17.569999999999993      15.059999999999993
    93   1      2.5099999999999945      18.824999999999992      16.314999999999994
    94   1      3.7649999999999935      17.569999999999993      16.314999999999994
    95   1      3.7649999999999935      18.824999999999992      15.059999999999993
    96   1      2.5099999999999945      17.569999999999993      17.569999999999993
    97   1      2.5099999999999945      18.824999999999992      18.824999999999992
    98   1      3.7649999999999935      17.569999999999993      18.824999999999992
    99   1      3.7649999999999935      18.824999999999992      17.569999999999993
   100   1      2.5099999999999945      17.569999999999993      20.079999999999991
   101   1      3.7649999999999935      17.569999999999993      21.334999999999987
   102   1      3.7649999999999935      18.824999999999992      20.079999999999991
   103   1      3.7649999999999935      20.079999999999991       8.784999999999993
   104   1      2.5099999999999945      20.079999999999991      10.039999999999994
   105   1      3.7649999999999935      20.079999999999991      11.294999999999995
   106   1      3.7649999999999935      21.334999999999987      10.039999999999994
   107   1      2.5099999999999945      20.079999999999991      12.549999999999994
   108   1      3.7649999999999935      20.079999999999991      13.804999999999993
   109   1      3.7649999999999935      21.334999999999987      12.549999999999994
   110   1      2.5099999999999945      20.079999999999991      15.059999999999993
   111   1      3.7649999999999935      20.079999999999991      16.314999999999994
   112   1      3.7649999999999935      21.334999999999987      15.059999999999993
   113   1      2.5099999999999945      20.079999999999991      17.569999999999993
   114   1      3.7649999999999935      20.079999999999991      18.824999999999992
   115   1      3.7649999999999935      21.334999999999987      17.569999999999993
   116   1      2.5099999999999945      20.079999999999991      20.079999999999991
   117   1      3.7649999999999935      20.079999999999991      21.334999999999987
   118   1      3.7649999999999935      21.334999999999987      20.079999999999991
   119   1       6.274999999999995       6.274999999999995      7.5299999999999931
   120   1       6.274999999999995       6.274999999999995      10.039999999999994
   121   1       6.274999999999995       6.274999999999995      12.549999999999994
   122   1       6.274999999999995       6.274999999999995      15.059999999999993
   123   1       6.274999999999995       6.274999999999995      17.569999999999993
   124   1       6.274999999999995       6.274999999999995      20.079999999999991
   125   1       6.274999999999995       6.274999999999995      22.589999999999993
   126   1       6.274999999999995      7.5299999999999931       6.274999999999995
   127   1      5.0199999999999942      7.5299999999999931      7.5299999999999931
   128   1      5.0199999999999942       8.784999999999993       8.784999999999993
   129   1       6.274999999999995      7.5299999999999931       8.784999999999993
   130   1       6.274999999999995       8.784999999999993      7.5299999999999931
   131   1      5.0199999999999942      7.5299999999999931      10.039999999999994
   132   1      5.0199999999999942       8.784999999999993      11.294999999999995
   133   1       6.274999999999995      7.5299999999999931      11.294999999999995
   134   1       6.274999999999995       8.784999999999993      10.039999999999994
   135   1      5.0199999999999942      7.5299999999999931      12.549999999999994
   136   1      5.0199999999999942       8.784999999999993      13.804999999999993
   137   1       6.274999999999995      7.5299999999999931      13.804999999999993
   138   1       6.274999999999995       8.784999999999993      12.549999999999994
   139   1      5.0199999999999942      7.5299999999999931      15.059999999999993
   140   1      5.0199999999999942       8.784999999999993      16.314999999999994
   141   1       6.274999999999995      7.5299999999999931      16.314999999999994
   142   1       6.274999999999995       8.784999999999993      15.059999999999993
   143   1      5.0199999999999942      7.5299999999999931      17.569999999999993
   144   1      5.0199999999999942       8.784999999999993      18.824999999999992
   145   1       6.274999999999995      7.5299999999999931      18.824999999999992
   146   1       6.274999999999995       8.784999999999993      17.569999999999993
   147   1      5.0199999999999942      7.5299999999999931      20.079999999999991
   148   1      5.0199999999999942       8.784999999999993      21.334999999999987
   149   1       6.274999999999995      7.5299999999999931      21.334999999999987
   150   1       6.274999999999995       8.784999999999993      20.079999999999991
   151   1      5.0199999999999942      7.5299999999999931      22.589999999999993
   152   1       6.274999999999995      7.5299999999999931      23.844999999999992
   153   1       6.274999999999995       8.784999999999993      22.589999999999993
   154   1       6.274999999999995      10.039999999999994       6.274999999999995
   155   1      5.0199999999999942      10.039999999999994      7.5299999999999931
   156   1      5.0199999999999942      11.294999999999995       8.784999999999993
   157   1       6.274999999999995      10.039999999999994       8.784999999999993
   158   1       6.274999999999995      11.294999999999995      7.5299999999999931
   159   1      5.0199999999999942      10.039999999999994      10.039999999999994
   160   1      5.0199999999999942      11.294999999999995      11.294999999999995
   161   1       6.274999999999995      10.039999999999994      11.294999999999995
   162   1       6.274999999999995      11.294999999999995      10.039999999999994
   163   1      5.0199999999999942      10.039999999999994      12.549999999999994
   164   1      5.0199999999999942      11.294999999999995      13.804999999999993
   165   1       6.274999999999995      10.039999999999994      13.804999999999993
   166   1       6.274999999999995      11.294999999999995      12.549999999999994
   167   1      5.0199999999999942      10.039999999999994      15.059999999999993
   168   1      5.0199999999999942      11.294999999999995      16.314999999999994
   169   1       6.274999999999995      10.039999999999994      16.314999999999994
   170   1       6.274999999999995      11.294999999999995      15.059999999999993
   171   1      5.0199999999999942      10.039999999999994      17.569999999999993
   172   1      5.0199999999999942      11.294999999999995      18.824999999999992
   173   1       6.274999999999995      10.039999999999994      18.824999999999992
   174   1       6.274999999999995      11.294999999999995      17.569999999999993
   175   1      5.0199999999999942      10.039999999999994      20.079999999999991
   176   1      5.0199999999999942      11.294999999999995      21.334999999999987
   177   1       6.274999999999995      10.039999999999994      21.334999999999987
   178   1       6.274999999999995      11.294999999999995      20.079999999999991
   179   1      5.0199999999999942      10.039999999999994      22.589999999999993
   180   1       6.274999999999995      10.039999999999994      23.844999999999992
   181   1       6.274999999999995      11.294999999999995      22.589999999999993
   182   1       6.274999999999995      12.549999999999994       6.274999999999995
   183   1      5.0199999999999942      12.549999999999994      7.5299999999999931
   184   1      5.0199999999999942      13.804999999999993       8.784999999999993
   185   1       6.274999999999995      12.549999999999994       8.784999999999993
   186   1       6.274999999999995      13.804999999999993      7.5299999999999931
   187   1      5.0199999999999942      12.549999999999994      10.039999999999994
   188   1      5.0199999999999942      13.804999999999993      11.294999999999995
   189   1       6.274999999999995      12.549999999999994      11.294999999999995
   190   1       6.274999999999995      13.804999999999993      10.039999999999994
   191   1      5.0199999999999942      12.549999999999994      12.549999999999994
   192   1      5.0199999999999942      13.804999999999993      13.804999999999993
   193   1       6.274999999999995      12.549999999999994      13.804999999999993
   194   1       6.274999999999995      13.804999999999993      12.549999999999994
   195   1      5.0199999999999942      12.549999999999994      15.059999999999993
   196   1      5.0199999999999942      13.804999999999993      16.314999999999994
   197   1       6.274999999999995      12.549999999999994      16.314999999999994
   198   1       6.274999999999995      13.804999999999993      15.059999999999993
   199   1      5.0199999999999942      12.549999999999994      17.569999999999993
   200   1      5.0199999999999942      13.804999999999993      18.824999999999992
   201   1       6.274999999999995      12.549999999999994      18.824999999999992
   202   1       6.274999999999995      13.804999999999993      17.569999999999993
   203   1      5.0199999999999942      12.549999999999994      20.079999999999991
   204   1      5.0199999999999942      13.804999999999993      21.334999999999987
   205   1       6.274999999999995      12.549999999999994      21.334999999999987
   206   1       6.274999999999995      13.804999999999993      20.079999999999991
   207   1      5.0199999999999942      12.549999999999994      22.589999999999993
   208   1       6.274999999999995      12.549999999999994      23.844999999999992
   209   1       6.274999999999995      13.804999999999993      22.589999999999993
   210   1       6.274999999999995      15.059999999999993       6.274999999999995
   211   1      5.0199999999999942      15.059999999999993      7.5299999999999931
   212   1      5.0199999999999942      16.314999999999994       8.784999999999993
   213   1       6.274999999999995      15.059999999999993       8.784999999999993
   214   1       6.274999999999995      16.314999999999994      7.5299999999999931
   215   1      5.0199999999999942      15.059999999999993      10.039999999999994
   216   1      5.0199999999999942      16.314999999999994      11.294999999999995
   217   1       6.274999999999995      15.059999999999993      11.294999999999995
   218   1       6.274999999999995      16.314999999999994      10.039999999999994
   219   1      5.0199999999999942      15.059999999999993      12.549999999999994
   220   1      5.0199999999999942      16.314999999999994      13.804999999999993
   221   1       6.274999999999995      15.059999999999993      13.804999999999993
   222   1       6.274999999999995      16.314999999999994      12.549999999999994
   223   1      5.0199999999999942      15.059999999999993      15.059999999999993
   224   1      5.0199999999999942      16.314999999999994      16.314999999999994
   225   1       6.274999999999995      15.059999999999993      16.314999999999994
   226   1       6.274999999999995      16.314999999999994      15.059999999999993
   227   1      5.0199999999999942      15.059999999999993      17.569999999999993
   228   1      5.0199999999999942      16.314999999999994      18.824999999999992
   229   1       6.274999999999995      15.059999999999993      18.824999999999992
   230   1       6.274999999999995      16.314999999999994      17.569999999999993
   231   1      5.0199999999999942      15.059999999999993      20.079999999999991
   232   1      5.0199999999999942      16.314999999999994      21.334999999999987
   233   1       6.274999999999995      15.059999999999993      21.334999999999987
   234   1       6.274999999999995      16.314999999999994      20.079999999999991
   235   1      5.0199999999999942      15.059999999999993      22.589999999999993
   236   1       6.274999999999995      15.059999999999993      23.844999999999992
   237   1       6.274999999999995      16.314999999999994      22.589999999999993
   238   1       6.274999999999995      17.569999999999993       6.274999999999995
   239   1      5.0199999999999942      17.569999999999993      7.5299999999999931
   240   1      5.0199999999999942      18.824999999999992       8.784999999999993
   241   1       6.274999999999995      17.569999999999993       8.784999999999993
   242   1       6.274999999999995      18.824999999999992      7.5299999999999931
   243   1      5.0199999999999942      17.569999999999993      10.039999999999994
   244   1      5.0199999999999942      18.824999999999992      11.294999999999995
   245   1       6.274999999999995      17.569999999999993      11.294999999999995
   246   1       6.274999999999995      18.824999999999992      10.039999999999994
   247   1      5.0199999999999942      17.569999999999993      12.549999999999994
   248   1      5.0199999999999942      18.824999999999992      13.804999999999993
   249   1       6.274999999999995      17.569999999999993      13.804999999999993
   250   1       6.274999999999995      18.824999999999992      12.549999999999994
   251   1      5.0199999999999942      17.569999999999993      15.059999999999993
   252   1      5.0199999999999942      18.824999999999992      16.314999999999994
   253   1       6.274999999999995      17.569999999999993      16.314999999999994
   254   1       6.274999999999995      18.824999999999992      15.059999999999993
   255   1      5.0199999999999942      17.569999999999993      17.569999999999993
   256   1      5.0199999999999942      18.824999999999992      18.824999999999992
   257   1       6.274999999999995      17.569999999999993      18.824999999999992
   258   1       6.274999999999995      18.824999999999992      17.569999999999993
   259   1      5.0199999999999942      17.569999999999993      20.079999999999991
   260   1      5.0199999999999942      18.824999999999992      21.334999999999987
   261   1       6.274999999999995      17.569999999999993      21.334999999999987
   262   1       6.274999999999995      18.824999999999992      20.079999999999991
   263   1      5.0199999999999942      17.569999999999993      22.589999999999993
   264   1       6.274999999999995      17.569999999999993      23.844999999999992
   265   1       6.274999999999995      18.824999999999992      22.589999999999993
   266   1       6.274999999999995      20.079999999999991       6.274999999999995
   267   1      5.0199999999999942      20.079999999999991      7.5299999999999931
   268   1      5.0199999999999942      21.334999999999987       8.784999999999993
   269   1       6.274999999999995      20.079999999999991       8.784999999999993
   270   1       6.274999999999995      21.334999999999987      7.5299999999999931
   271   1      5.0199999999999942      20.079999999999991      10.039999999999994
   272   1      5.0199999999999942      21.334999999999987      11.294999999999995
   273   1       6.274999999999995      20.079999999999991      11.294999999999995
   274   1       6.274999999999995      21.334999999999987      10.039999999999994
   275   1      5.0199999999999942      20.079999999999991      12.549999999999994
   276   1      5.0199999999999942      21.334999999999987      13.804999999999993
   277   1       6.274999999999995      20.079999999999991      13.804999999999993
   278   1       6.274999999999995      21.334999999999987      12.549999999999994
   279   1      5.0199999999999942      20.079999999999991      15.059999999999993
   280   1      5.0199999999999942      21.334999999999987      16.314999999999994
   281   1       6.274999999999995      20.079999999999991      16.314999999999994
   282   1       6.274999999999995      21.334999999999987      15.059999999999993
   283   1      5.0199999999999942      20.079999999999991      17.569999999999993
   284   1      5.0199999999999942      21.334999999999987      18.824999999999992
   285   1       6.274999999999995      20.079999999999991      18.824999999999992
   286   1       6.274999999999995      21.334999999999987      17.569999999999993
   287   1      5.0199999999999942      20.079999999999991      20.079999999999991
   288   1      5.0199999999999942      21.334999999999987      21.334999999999987
   289   1       6.274999999999995      20.079999999999991      21.334999999999987
   290   1       6.274999999999995      21.334999999999987      20.079999999999991
   291   1      5.0199999999999942      20.079999999999991      22.589999999999993
   292   1       6.274999999999995      20.079999999999991      23.844999999999992
   293   1       6.274999999999995      21.334999999999987      22.589999999999993
   294   1       6.274999999999995      22.589999999999993       6.274999999999995
   295   1      5.0199999999999942      22.589999999999993      7.5299999999999931
   296   1       6.274999999999995      22.589999999999993       8.784999999999993
   297   1       6.274999999999995      23.844999999999992      7.5299999999999931
   298   1      5.0199999999999942      22.589999999999993      10.039999999999994
   299   1       6.274999999999995      22.589999999999993      11.294999999999995
   300   1       6.274999999999995      23.844999999999992      10.039999999999994
   301   1      5.0199999999999942      22.589999999999993      12.549999999999994
   302   1       6.274999999999995      22.589999999999993      13.804999999999993
   303   1       6.274999999999995      23.844999999999992      12.549999999999994
   304   1      5.0199999999999942      22.589999999999993      15.059999999999993
   305   1       6.274999999999995      22.589999999999993      16.314999999999994
   306   1       6.274999999999995      23.844999999999992      15.059999999999993
   307   1      5.0199999999999942      22.589999999999993      17.569999999999993
   308   1       6.274999999999995      22.589999999999993      18.824999999999992
   309   1       6.274999999999995      23.844999999999992      17.569999999999993
   310   1      5.0199999999999942      22.589999999999993      20.079999999999991
   311   1       6.274999999999995      22.589999999999993      21.334999999999987
   312   1       6.274999999999995      23.844999999999992      20.079999999999991
   313   1      5.0199999999999942      22.589999999999993      22.589999999999993
   314   1       6.274999999999995      22.589999999999993      23.844999999999992
   315   1       6.274999999999995      23.844999999999992      22.589999999999993
   316   1       8.784999999999993      3.7649999999999935      10.039999999999994
   317   1       8.784999999999993      3.7649999999999935      12.549999999999994
   318   1       8.784999999999993      3.7649999999999935      15.059999999999993
   319   1       8.784999999999993      3.7649999999999935      17.569999999999993
   320   1       8.784999999999993      3.7649999999999935      20.079999999999991
   321   1      7.5299999999999931       6.274999999999995       6.274999999999995
   322   1      7.5299999999999931      5.0199999999999942      7.5299999999999931
   323   1      7.5299999999999931       6.274999999999995       8.784999999999993
   324   1       8.784999999999993      5.0199999999999942       8.784999999999993
   325   1       8.784999999999993       6.274999999999995      7.5299999999999931
   326   1      7.5299999999999931      5.0199999999999942      10.039999999999994
   327   1      7.5299999999999931       6.274999999999995      11.294999999999995
   328   1       8.784999999999993      5.0199999999999942      11.294999999999995
   329   1       8.784999999999993       6.274999999999995      10.039999999999994
   330   1      7.5299999999999931      5.0199999999999942      12.549999999999994
   331   1      7.5299999999999931       6.274999999999995      13.804999999999993
   332   1       8.784999999999993      5.0199999999999942      13.804999999999993
   333   1       8.784999999999993       6.274999999999995      12.549999999999994
   334   1      7.5299999999999931      5.0199999999999942      15.059999999999993
   335   1      7.5299999999999931       6.274999999999995      16.314999999999994
   336   1       8.784999999999993      5.0199999999999942      16.314999999999994
   337   1       8.784999999999993       6.274999999999995      15.059999999999993
   338   1      7.5299999999999931      5.0199999999999942      17.569999999999993
   339   1      7.5299999999999931       6.274999999999995      18.824999999999992
   340   1       8.784999999999993      5.0199999999999942      18.824999999999992
   341   1       8.784999999999993       6.274999999999995      17.569999999999993
   342   1      7.5299999999999931      5.0199999999999942      20.079999999999991
   343   1      7.5299999999999931       6.274999999999995      21.334999999999987
   344   1       8.784999999999993      5.0199999999999942      21.334999999999987
   345   1       8.784999999999993       6.274999999999995      20.079999999999991
   346   1      7.5299999999999931      5.0199999999999942      22.589999999999993
   347   1      7.5299999999999931       6.274999999999995      23.844999999999992
   348   1       8.784999999999993       6.274999999999995      22.589999999999993
   349   1      7.5299999999999931      7.5299999999999931      5.0199999999999942
   350   1      7.5299999999999931       8.784999999999993       6.274999999999995
   351   1       8.784999999999993      7.5299999999999931       6.274999999999995
   352   1       8.784999999999993       8.784999999999993      5.0199999999999942
   353   1      7.5299999999999931      7.5299999999999931      7.5299999999999931
   354   1      7.5299999999999931       8.784999999999993       8.784999999999993
   355   1       8.784999999999993      7.5299999999999931       8.784999999999993
   356   1       8.784999999999993       8.784999999999993      7.5299999999999931
   357   1      7.5299999999999931      7.5299999999999931      10.039999999999994
   358   1      7.5299999999999931       8.784999999999993      11.294999999999995