LAMMPS data file via write_data, version 30 Nov 2020, timestep = 0

29659 atoms
5 atom types

0 68 xlo xhi
0 68 ylo yhi
0 68 zlo zhi

Masses

1 58.69
2 58.933
3 51.96
4 55.847
5 54.94

Atoms # atomic

1 2 0 0 1.7974999999999994 0 0 0
2 5 0 0 5.392500000000002 0 0 0
3 4 0 0 8.9875 0 0 0
4 4 0 0 12.582500000000003 0 0 0
5 2 0 0 16.177500000000002 0 0 0
6 5 0 0 19.7725 0 0 0
7 3 0 0 23.367500000000003 0 0 0
8 2 0 0 26.962500000000002 0 0 0
9 2 0 0 30.557500000000005 0 0 0
20 4 0 1.7974999999999994 0 0 0 0
21 1 0 1.7974999999999994 3.594999999999999 0 0 0
22 3 0 3.594999999999999 1.7974999999999994 0 0 0
23 2 0 1.7974999999999994 7.190000000000001 0 0 0
24 1 0 3.594999999999999 5.392500000000002 0 0 0
25 3 0 1.7974999999999994 10.785 0 0 0
26 4 0 3.594999999999999 8.9875 0 0 0
27 4 0 1.7974999999999994 14.380000000000003 0 0 0
28 5 0 3.594999999999999 12.582500000000003 0 0 0
29 2 0 1.7974999999999994 17.975 0 0 0
30 2 0 3.594999999999999 16.177500000000002 0 0 0
31 4 0 1.7974999999999994 21.57 0 0 0
32 1 0 3.594999999999999 19.7725 0 0 0
33 5 0 1.7974999999999994 25.165000000000003 0 0 0
34 3 0 3.594999999999999 23.367500000000003 0 0 0
35 3 0 1.7974999999999994 28.76 0 0 0
36 2 0 3.594999999999999 26.962500000000002 0 0 0
37 2 0 1.7974999999999994 32.355000000000004 0 0 0
38 4 0 3.594999999999999 30.557500000000005 0 0 0
57 1 0 1.7974999999999994 0.30500000000000943 0 0 0
59 5 0 5.392500000000002 0 0 0 0
60 1 0 5.392500000000002 3.594999999999999 0 0 0
61 4 0 7.190000000000001 1.7974999999999994 0 0 0
62 4 0 5.392500000000002 7.190000000000001 0 0 0
63 3 0 7.190000000000001 5.392500000000002 0 0 0
64 2 0 5.392500000000002 10.785 0 0 0
65 2 0 7.190000000000001 8.9875 0 0 0
66 5 0 5.392500000000002 14.380000000000003 0 0 0
67 1 0 7.190000000000001 12.582500000000003 0 0 0
68 4 0 5.392500000000002 17.975 0 0 0
69 1 0 7.190000000000001 16.177500000000002 0 0 0
70 1 0 5.392500000000002 21.57 0 0 0
71 4 0 7.190000000000001 19.7725 0 0 0
72 5 0 5.392500000000002 25.165000000000003 0 0 0
73 3 0 7.190000000000001 23.367500000000003 0 0 0
74 1 0 5.392500000000002 28.76 0 0 0
75 5 0 7.190000000000001 26.962500000000002 0 0 0
76 5 0 5.392500000000002 32.355000000000004 0 0 0
77 3 0 7.190000000000001 30.557500000000005 0 0 0
96 1 0 5.392500000000002 0.30500000000000943 0 0 0
98 5 0 8.9875 0 0 0 0
99 2 0 8.9875 3.594999999999999 0 0 0
100 3 0 10.785 1.7974999999999994 0 0 0
101 5 0 8.9875 7.190000000000001 0 0 0
102 2 0 10.785 5.392500000000002 0 0 0
103 4 0 8.9875 10.785 0 0 0
104 3 0 10.785 8.9875 0 0 0
105 1 0 8.9875 14.380000000000003 0 0 0
106 3 0 10.785 12.582500000000003 0 0 0
107 2 0 8.9875 17.975 0 0 0
108 3 0 10.785 16.177500000000002 0 0 0
109 5 0 8.9875 21.57 0 0 0
110 5 0 10.785 19.7725 0 0 0
111 2 0 8.9875 25.165000000000003 0 0 0
112 2 0 10.785 23.367500000000003 0 0 0
113 2 0 8.9875 28.76 0 0 0
114 5 0 10.785 26.962500000000002 0 0 0
115 3 0 8.9875 32.355000000000004 0 0 0
116 5 0 10.785 30.557500000000005 0 0 0
135 4 0 8.9875 0.30500000000000943 0 0 0
137 1 0 12.582500000000003 0 0 0 0
138 5 0 12.582500000000003 3.594999999999999 0 0 0
139 4 0 14.380000000000003 1.7974999999999994 0 0 0
140 5 0 12.582500000000003 7.190000000000001 0 0 0
141 3 0 14.380000000000003 5.392500000000002 0 0 0
142 4 0 12.582500000000003 10.785 0 0 0
143 1 0 14.380000000000003 8.9875 0 0 0
144 5 0 12.582500000000003 14.380000000000003 0 0 0
145 1 0 14.380000000000003 12.582500000000003 0 0 0
146 5 0 12.582500000000003 17.975 0 0 0
147 2 0 14.380000000000003 16.177500000000002 0 0 0
148 4 0 12.582500000000003 21.57 0 0 0
149 4 0 14.380000000000003 19.7725 0 0 0
150 5 0 12.582500000000003 25.165000000000003 0 0 0
151 4 0 14.380000000000003 23.367500000000003 0 0 0
152 4 0 12.582500000000003 28.76 0 0 0
153 3 0 14.380000000000003 26.962500000000002 0 0 0
154 4 0 12.582500000000003 32.355000000000004 0 0 0
155 4 0 14.380000000000003 30.557500000000005 0 0 0
174 4 0 12.582500000000003 0.30500000000000943 0 0 0
176 3 0 16.177500000000002 0 0 0 0
177 5 0 16.177500000000002 3.594999999999999 0 0 0
178 3 0 17.975 1.7974999999999994 0 0 0
179 4 0 16.177500000000002 7.190000000000001 0 0 0
180 5 0 17.975 5.392500000000002 0 0 0
181 3 0 16.177500000000002 10.785 0 0 0
182 2 0 17.975 8.9875 0 0 0
183 5 0 16.177500000000002 14.380000000000003 0 0 0
184 3 0 17.975 12.582500000000003 0 0 0
185 2 0 16.177500000000002 17.975 0 0 0
186 3 0 17.975 16.177500000000002 0 0 0
187 3 0 16.177500000000002 21.57 0 0 0
188 2 0 17.975 19.7725 0 0 0
189 2 0 16.177500000000002 25.165000000000003 0 0 0
190 2 0 17.975 23.367500000000003 0 0 0
191 4 0 16.177500000000002 28.76 0 0 0
192 1 0 17.975 26.962500000000002 0 0 0
193 5 0 16.177500000000002 32.355000000000004 0 0 0
194 5 0 17.975 30.557500000000005 0 0 0
213 1 0 16.177500000000002 0.30500000000000943 0 0 0
215 2 0 19.7725 0 0 0 0
216 3 0 19.7725 3.594999999999999 0 0 0
217 3 0 21.57 1.7974999999999994 0 0 0
218 5 0 19.7725 7.190000000000001 0 0 0
219 1 0 21.57 5.392500000000002 0 0 0
220 1 0 19.7725 10.785 0 0 0
221 2 0 21.57 8.9875 0 0 0
222 1 0 19.7725 14.380000000000003 0 0 0
223 1 0 21.57 12.582500000000003 0 0 0
224 2 0 19.7725 17.975 0 0 0
225 1 0 21.57 16.177500000000002 0 0 0
226 2 0 19.7725 21.57 0 0 0
227 2 0 21.57 19.7725 0 0 0
228 3 0 19.7725 25.165000000000003 0 0 0
229 3 0 21.57 23.367500000000003 0 0 0
230 3 0 19.7725 28.76 0 0 0
231 4 0 21.57 26.962500000000002 0 0 0
232 1 0 19.7725 32.355000000000004 0 0 0
233 5 0 21.57 30.557500000000005 0 0 0
252 5 0 19.7725 0.30500000000000943 0 0 0
254 4 0 23.367500000000003 0 0 0 0
255 4 0 23.367500000000003 3.594999999999999 0 0 0
256 5 0 25.165000000000003 1.7974999999999994 0 0 0
257 4 0 23.367500000000003 7.190000000000001 0 0 0
258 1 0 25.165000000000003 5.392500000000002 0 0 0
259 5 0 23.367500000000003 10.785 0 0 0
260 1 0 25.165000000000003 8.9875 0 0 0
261 3 0 23.367500000000003 14.380000000000003 0 0 0
262 1 0 25.165000000000003 12.582500000000003 0 0 0
263 4 0 23.367500000000003 17.975 0 0 0
264 1 0 25.165000000000003 16.177500000000002 0 0 0
265 3 0 23.367500000000003 21.57 0 0 0
266 2 0 25.165000000000003 19.7725 0 0 0
267 3 0 23.367500000000003 25.165000000000003 0 0 0
268 4 0 25.165000000000003 23.367500000000003 0 0 0
269 3 0 23.367500000000003 28.76 0 0 0
270 4 0 25.165000000000003 26.962500000000002 0 0 0
271 1 0 23.367500000000003 32.355000000000004 0 0 0
272 4 0 25.165000000000003 30.557500000000005 0 0 0
291 2 0 23.367500000000003 0.30500000000000943 0 0 0
293 4 0 26.962500000000002 0 0 0 0
294 4 0 26.962500000000002 3.594999999999999 0 0 0
295 3 0 28.76 1.7974999999999994 0 0 0
296 1 0 26.962500000000002 7.190000000000001 0 0 0
297 4 0 28.76 5.392500000000002 0 0 0
298 2 0 26.962500000000002 10.785 0 0 0
299 2 0 28.76 8.9875 0 0 0
300 2 0 26.962500000000002 14.380000000000003 0 0 0
301 1 0 28.76 12.582500000000003 0 0 0
302 4 0 26.962500000000002 17.975 0 0 0
303 1 0 28.76 16.177500000000002 0 0 0
304 3 0 26.962500000000002 21.57 0 0 0
305 3 0 28.76 19.7725 0 0 0
306 2 0 26.962500000000002 25.165000000000003 0 0 0
307 3 0 28.76 23.367500000000003 0 0 0
308 2 0 26.962500000000002 28.76 0 0 0
309 4 0 28.76 26.962500000000002 0 0 0
310 3 0 26.962500000000002 32.355000000000004 0 0 0
311 5 0 28.76 30.557500000000005 0 0 0
330 5 0 26.962500000000002 0.30500000000000943 0 0 0
332 2 0 30.557500000000005 0 0 0 0
333 3 0 30.557500000000005 3.594999999999999 0 0 0
334 5 0 32.355000000000004 1.7974999999999994 0 0 0
335 3 0 30.557500000000005 7.190000000000001 0 0 0
336 2 0 32.355000000000004 5.392500000000002 0 0 0
337 5 0 30.557500000000005 10.785 0 0 0
338 3 0 32.355000000000004 8.9875 0 0 0
339 5 0 30.557500000000005 14.380000000000003 0 0 0
340 2 0 32.355000000000004 12.582500000000003 0 0 0
341 3 0 30.557500000000005 17.975 0 0 0
342 5 0 32.355000000000004 16.177500000000002 0 0 0
343 1 0 30.557500000000005 21.57 0 0 0
344 1 0 32.355000000000004 19.7725 0 0 0
345 4 0 30.557500000000005 25.165000000000003 0 0 0
346 5 0 32.355000000000004 23.367500000000003 0 0 0
347 1 0 30.557500000000005 28.76 0 0 0
348 5 0 32.355000000000004 26.962500000000002 0 0 0
349 3 0 30.557500000000005 32.355000000000004 0 0 0
350 5 0 32.355000000000004 30.557500000000005 0 0 0
369 5 0 30.557500000000005 0.30500000000000943 0 0 0
724 5 0 0.30500000000000943 1.7974999999999994 0 0 0
726 3 0 0.30500000000000943 5.392500000000002 0 0 0
728 3 0 0.30500000000000943 8.9875 0 0 0
730 4 0 0.30500000000000943 12.582500000000003 0 0 0
732 1 0 0.30500000000000943 16.177500000000002 0 0 0
734 3 0 0.30500000000000943 19.7725 0 0 0
736 3 0 0.30500000000000943 23.367500000000003 0 0 0
738 1 0 0.30500000000000943 26.962500000000002 0 0 0
740 3 0 0.30500000000000943 30.557500000000005 0 0 0
761 4 1.7974999999999994 0 0 0 0 0
762 5 1.7974999999999994 0 3.594999999999999 0 0 0
763 1 3.594999999999999 0 1.7974999999999994 0 0 0
764 1 1.7974999999999994 0 7.190000000000001 0 0 0
765 1 3.594999999999999 0 5.392500000000002 0 0 0
766 2 1.7974999999999994 0 10.785 0 0 0
767 1 3.594999999999999 0 8.9875 0 0 0
768 5 1.7974999999999994 0 14.380000000000003 0 0 0
769 5 3.594999999999999 0 12.582500000000003 0 0 0
770 5 1.7974999999999994 0 17.975 0 0 0
771 3 3.594999999999999 0 16.177500000000002 0 0 0
772 4 1.7974999999999994 0 21.57 0 0 0
773 5 3.594999999999999 0 19.7725 0 0 0
774 2 1.7974999999999994 0 25.165000000000003 0 0 0
775 3 3.594999999999999 0 23.367500000000003 0 0 0
776 5 1.7974999999999994 0 28.76 0 0 0
777 5 3.594999999999999 0 26.962500000000002 0 0 0
778 3 1.7974999999999994 0 32.355000000000004 0 0 0
779 4 3.594999999999999 0 30.557500000000005 0 0 0
798 2 1.7974999999999994 0 0.30500000000000943 0 0 0
800 1 1.7974999999999994 3.594999999999999 0 0 0 0
801 1 3.594999999999999 1.7974999999999994 0 0 0 0
802 3 1.7974999999999994 1.7974999999999994 1.7974999999999994 0 0 0
803 1 1.7974999999999994 3.594999999999999 3.594999999999999 0 0 0
804 3 3.594999999999999 1.7974999999999994 3.594999999999999 0 0 0
805 1 3.594999999999999 3.594999999999999 1.7974999999999994 0 0 0
806 5 1.7974999999999994 1.7974999999999994 5.392500000000002 0 0 0
807 4 1.7974999999999994 3.594999999999999 7.190000000000001 0 0 0
808 2 3.594999999999999 1.7974999999999994 7.190000000000001 0 0 0
809 2 3.594999999999999 3.594999999999999 5.392500000000002 0 0 0
810 1 1.7974999999999994 1.7974999999999994 8.9875 0 0 0
811 1 1.7974999999999994 3.594999999999999 10.785 0 0 0
812 5 3.594999999999999 1.7974999999999994 10.785 0 0 0
813 4 3.594999999999999 3.594999999999999 8.9875 0 0 0
814 4 1.7974999999999994 1.7974999999999994 12.582500000000003 0 0 0
815 1 1.7974999999999994 3.594999999999999 14.380000000000003 0 0 0
816 2 3.594999999999999 1.7974999999999994 14.380000000000003 0 0 0
817 4 3.594999999999999 3.594999999999999 12.582500000000003 0 0 0
818 5 1.7974999999999994 1.7974999999999994 16.177500000000002 0 0 0
819 4 1.7974999999999994 3.594999999999999 17.975 0 0 0
820 2 3.594999999999999 1.7974999999999994 17.975 0 0 0
821 1 3.594999999999999 3.594999999999999 16.177500000000002 0 0 0
822 5 1.7974999999999994 1.7974999999999994 19.7725 0 0 0
823 2 1.7974999999999994 3.594999999999999 21.57 0 0 0
824 4 3.594999999999999 1.7974999999999994 21.57 0 0 0
825 1 3.594999999999999 3.594999999999999 19.7725 0 0 0
826 1 1.7974999999999994 1.7974999999999994 23.367500000000003 0 0 0
827 4 1.7974999999999994 3.594999999999999 25.165000000000003 0 0 0
828 1 3.594999999999999 1.7974999999999994 25.165000000000003 0 0 0
829 3 3.594999999999999 3.594999999999999 23.367500000000003 0 0 0
830 1 1.7974999999999994 1.7974999999999994 26.962500000000002 0 0 0
831 2 1.7974999999999994 3.594999999999999 28.76 0 0 0
832 2 3.594999999999999 1.7974999999999994 28.76 0 0 0
833 2 3.594999999999999 3.594999999999999 26.962500000000002 0 0 0
834 5 1.7974999999999994 1.7974999999999994 30.557500000000005 0 0 0
835 3 1.7974999999999994 3.594999999999999 32.355000000000004 0 0 0
836 3 3.594999999999999 1.7974999999999994 32.355000000000004 0 0 0
837 2 3.594999999999999 3.594999999999999 30.557500000000005 0 0 0
875 1 1.7974999999999994 3.594999999999999 0.30500000000000943 0 0 0
876 3 3.594999999999999 1.7974999999999994 0.30500000000000943 0 0 0
878 5 1.7974999999999994 7.190000000000001 0 0 0 0
879 1 3.594999999999999 5.392500000000002 0 0 0 0
880 4 1.7974999999999994 5.392500000000002 1.7974999999999994 0 0 0
881 3 1.7974999999999994 7.190000000000001 3.594999999999999 0 0 0
882 5 3.594999999999999 5.392500000000002 3.594999999999999 0 0 0
883 3 3.594999999999999 7.190000000000001 1.7974999999999994 0 0 0
884 4 1.7974999999999994 5.392500000000002 5.392500000000002 0 0 0
885 1 1.7974999999999994 7.190000000000001 7.190000000000001 0 0 0
886 1 3.594999999999999 5.392500000000002 7.190000000000001 0 0 0
887 5 3.594999999999999 7.190000000000001 5.392500000000002 0 0 0
888 1 1.7974999999999994 5.392500000000002 8.9875 0 0 0
889 3 1.7974999999999994 7.190000000000001 10.785 0 0 0
890 2 3.594999999999999 5.392500000000002 10.785 0 0 0
891 2 3.594999999999999 7.190000000000001 8.9875 0 0 0
892 2 1.7974999999999994 5.392500000000002 12.582500000000003 0 0 0
893 3 1.7974999999999994 7.190000000000001 14.380000000000003 0 0 0
894 1 3.594999999999999 5.392500000000002 14.380000000000003 0 0 0
895 1 3.594999999999999 7.190000000000001 12.582500000000003 0 0 0
896 5 1.7974999999999994 5.392500000000002 16.177500000000002 0 0 0
897 4 1.7974999999999994 7.190000000000001 17.975 0 0 0
898 2 3.594999999999999 5.392500000000002 17.975 0 0 0
899 1 3.594999999999999 7.190000000000001 16.177500000000002 0 0 0
900 2 1.7974999999999994 5.392500000000002 19.7725 0 0 0
901 5 1.7974999999999994 7.190000000000001 21.57 0 0 0
902 1 3.594999999999999 5.392500000000002 21.57 0 0 0
903 1 3.594999999999999 7.190000000000001 19.7725 0 0 0
904 5 1.7974999999999994 5.392500000000002 23.367500000000003 0 0 0
905 1 1.7974999999999994 7.190000000000001 25.165000000000003 0 0 0
906 3 3.594999999999999 5.392500000000002 25.165000000000003 0 0 0
907 2 3.594999999999999 7.190000000000001 23.367500000000003 0 0 0
908 3 1.7974999999999994 5.392500000000002 26.962500000000002 0 0 0
909 2 1.7974999999999994 7.190000000000001 28.76 0 0 0
910 4 3.594999999999999 5.392500000000002 28.76 0 0 0
911 1 3.594999999999999 7.190000000000001 26.962500000000002 0 0 0
912 4 1.7974999999999994 5.392500000000002 30.557500000000005 0 0 0
913 1 1.7974999999999994 7.190000000000001 32.355000000000004 0 0 0
914 2 3.594999999999999 5.392500000000002 32.355000000000004 0 0 0
915 2 3.594999999999999 7.190000000000001 30.557500000000005 0 0 0
953 3 1.7974999999999994 7.190000000000001 0.30500000000000943 0 0 0
954 4 3.594999999999999 5.392500000000002 0.30500000000000943 0 0 0
956 1 1.7974999999999994 10.785 0 0 0 0
957 2 3.594999999999999 8.9875 0 0 0 0
958 4 1.7974999999999994 8.9875 1.7974999999999994 0 0 0
959 2 1.7974999999999994 10.785 3.594999999999999 0 0 0
960 1 3.594999999999999 8.9875 3.594999999999999 0 0 0
961 5 3.594999999999999 10.785 1.7974999999999994 0 0 0
962 2 1.7974999999999994 8.9875 5.392500000000002 0 0 0
963 2 1.7974999999999994 10.785 7.190000000000001 0 0 0
964 3 3.594999999999999 8.9875 7.190000000000001 0 0 0
965 3 3.594999999999999 10.785 5.392500000000002 0 0 0
966 2 1.7974999999999994 8.9875 8.9875 0 0 0
967 5 1.7974999999999994 10.785 10.785 0 0 0
968 2 3.594999999999999 8.9875 10.785 0 0 0
969 4 3.594999999999999 10.785 8.9875 0 0 0
970 4 1.7974999999999994 8.9875 12.582500000000003 0 0 0
971 3 1.7974999999999994 10.785 14.380000000000003 0 0 0
972 5 3.594999999999999 8.9875 14.380000000000003 0 0 0
973 5 3.594999999999999 10.785 12.582500000000003 0 0 0
974 5 1.7974999999999994 8.9875 16.177500000000002 0 0 0
975 2 1.7974999999999994 10.785 17.975 0 0 0
976 5 3.594999999999999 8.9875 17.975 0 0 0
977 1 3.594999999999999 10.785 16.177500000000002 0 0 0
978 4 1.7974999999999994 8.9875 19.7725 0 0 0
979 2 1.7974999999999994 10.785 21.57 0 0 0
980 4 3.594999999999999 8.9875 21.57 0 0 0
981 5 3.594999999999999 10.785 19.7725 0 0 0
982 3 1.7974999999999994 8.9875 23.367500000000003 0 0 0
983 5 1.7974999999999994 10.785 25.165000000000003 0 0 0
984 1 3.594999999999999 8.9875 25.165000000000003 0 0 0
985 4 3.594999999999999 10.785 23.367500000000003 0 0 0
986 5 1.7974999999999994 8.9875 26.962500000000002 0 0 0
987 3 1.7974999999999994 10.785 28.76 0 0 0
988 3 3.594999999999999 8.9875 28.76 0 0 0
989 1 3.594999999999999 10.785 26.962500000000002 0 0 0
990 1 1.7974999999999994 8.9875 30.557500000000005 0 0 0
991 4 1.7974999999999994 10.785 32.355000000000004 0 0 0
992 2 3.594999999999999 8.9875 32.355000000000004 0 0 0
993 5 3.594999999999999 10.785 30.557500000000005 0 0 0
1031 3 1.7974999999999994 10.785 0.30500000000000943 0 0 0
1032 5 3.594999999999999 8.9875 0.30500000000000943 0 0 0
1034 2 1.7974999999999994 14.380000000000003 0 0 0 0
1035 5 3.594999999999999 12.582500000000003 0 0 0 0
1036 2 1.7974999999999994 12.582500000000003 1.7974999999999994 0 0 0
1037 5 1.7974999999999994 14.380000000000003 3.594999999999999 0 0 0
1038 5 3.594999999999999 12.582500000000003 3.594999999999999 0 0 0
1039 4 3.594999999999999 14.380000000000003 1.7974999999999994 0 0 0
1040 2 1.7974999999999994 12.582500000000003 5.392500000000002 0 0 0
1041 4 1.7974999999999994 14.380000000000003 7.190000000000001 0 0 0
1042 1 3.594999999999999 12.582500000000003 7.190000000000001 0 0 0
1043 5 3.594999999999999 14.380000000000003 5.392500000000002 0 0 0
1044 4 1.7974999999999994 12.582500000000003 8.9875 0 0 0
1045 4 1.7974999999999994 14.380000000000003 10.785 0 0 0
1046 5 3.594999999999999 12.582500000000003 10.785 0 0 0
1047 4 3.594999999999999 14.380000000000003 8.9875 0 0 0
1048 1 1.7974999999999994 12.582500000000003 12.582500000000003 0 0 0
1049 3 1.7974999999999994 14.380000000000003 14.380000000000003 0 0 0
1050 2 3.594999999999999 12.582500000000003 14.380000000000003 0 0 0
1051 1 3.594999999999999 14.380000000000003 12.582500000000003 0 0 0
1052 2 1.7974999999999994 12.582500000000003 16.177500000000002 0 0 0
1053 3 1.7974999999999994 14.380000000000003 17.975 0 0 0
1054 1 3.594999999999999 12.582500000000003 17.975 0 0 0
1055 1 3.594999999999999 14.380000000000003 16.177500000000002 0 0 0
1056 1 1.7974999999999994 12.582500000000003 19.7725 0 0 0
1057 2 1.7974999999999994 14.380000000000003 21.57 0 0 0
1058 4 3.594999999999999 12.582500000000003 21.57 0 0 0
1059 1 3.594999999999999 14.380000000000003 19.7725 0 0 0
1060 3 1.7974999999999994 12.582500000000003 23.367500000000003 0 0 0
1061 1 1.7974999999999994 14.380000000000003 25.165000000000003 0 0 0
1062 5 3.594999999999999 12.582500000000003 25.165000000000003 0 0 0
1063 1 3.594999999999999 14.380000000000003 23.367500000000003 0 0 0
1064 5 1.7974999999999994 12.582500000000003 26.962500000000002 0 0 0
1065 5 1.7974999999999994 14.380000000000003 28.76 0 0 0
1066 2 3.594999999999999 12.582500000000003 28.76 0 0 0
1067 1 3.594999999999999 14.380000000000003 26.962500000000002 0 0 0
1068 1 1.7974999999999994 12.582500000000003 30.557500000000005 0 0 0
1069 2 1.7974999999999994 14.380000000000003 32.355000000000004 0 0 0
1070 2 3.594999999999999 12.582500000000003 32.355000000000004 0 0 0
1071 3 3.594999999999999 14.380000000000003 30.557500000000005 0 0 0
1109 4 1.7974999999999994 14.380000000000003 0.30500000000000943 0 0 0
1110 2 3.594999999999999 12.582500000000003 0.30500000000000943 0 0 0
1112 1 1.7974999999999994 17.975 0 0 0 0
1113 5 3.594999999999999 16.177500000000002 0 0 0 0
1114 5 1.7974999999999994 16.177500000000002 1.7974999999999994 0 0 0
1115 3 1.7974999999999994 17.975 3.594999999999999 0 0 0
1116 1 3.594999999999999 16.177500000000002 3.594999999999999 0 0 0
1117 4 3.594999999999999 17.975 1.7974999999999994 0 0 0
1118 4 1.7974999999999994 16.177500000000002 5.392500000000002 0 0 0
1119 3 1.7974999999999994 17.975 7.190000000000001 0 0 0
1120 4 3.594999999999999 16.177500000000002 7.190000000000001 0 0 0
1121 2 3.594999999999999 17.975 5.392500000000002 0 0 0
1122 1 1.7974999999999994 16.177500000000002 8.9875 0 0 0
1123 1 1.7974999999999994 17.975 10.785 0 0 0
1124 5 3.594999999999999 16.177500000000002 10.785 0 0 0
1125 3 3.594999999999999 17.975 8.9875 0 0 0
1126 4 1.7974999999999994 16.177500000000002 12.582500000000003 0 0 0
1127 4 1.7974999999999994 17.975 14.380000000000003 0 0 0
1128 5 3.594999999999999 16.177500000000002 14.380000000000003 0 0 0
1129 1 3.594999999999999 17.975 12.582500000000003 0 0 0
1130 1 1.7974999999999994 16.177500000000002 16.177500000000002 0 0 0
1131 2 1.7974999999999994 17.975 17.975 0 0 0
1132 1 3.594999999999999 16.177500000000002 17.975 0 0 0
1133 1 3.594999999999999 17.975 16.177500000000002 0 0 0
1134 2 1.7974999999999994 16.177500000000002 19.7725 0 0 0
1135 4 1.7974999999999994 17.975 21.57 0 0 0
1136 1 3.594999999999999 16.177500000000002 21.57 0 0 0
1137 1 3.594999999999999 17.975 19.7725 0 0 0
1138 2 1.7974999999999994 16.177500000000002 23.367500000000003 0 0 0
1139 3 1.7974999999999994 17.975 25.165000000000003 0 0 0
1140 1 3.594999999999999 16.177500000000002 25.165000000000003 0 0 0
1141 3 3.594999999999999 17.975 23.367500000000003 0 0 0
1142 4 1.7974999999999994 16.177500000000002 26.962500000000002 0 0 0
1143 4 1.7974999999999994 17.975 28.76 0 0 0
1144 3 3.594999999999999 16.177500000000002 28.76 0 0 0
1145 1 3.594999999999999 17.975 26.962500000000002 0 0 0
1146 1 1.7974999999999994 16.177500000000002 30.557500000000005 0 0 0
1147 1 1.7974999999999994 17.975 32.355000000000004 0 0 0
1148 4 3.594999999999999 16.177500000000002 32.355000000000004 0 0 0
1149 3 3.594999999999999 17.975 30.557500000000005 0 0 0
1187 5 1.7974999999999994 17.975 0.30500000000000943 0 0 0
1188 5 3.594999999999999 16.177500000000002 0.30500000000000943 0 0 0
1190 3 1.7974999999999994 21.57 0 0 0 0
1191 1 3.594999999999999 19.7725 0 0 0 0
1192 5 1.7974999999999994 19.7725 1.7974999999999994 0 0 0
1193 2 1.7974999999999994 21.57 3.594999999999999 0 0 0
1194 1 3.594999999999999 19.7725 3.594999999999999 0 0 0
1195 5 3.594999999999999 21.57 1.7974999999999994 0 0 0
1196 4 1.7974999999999994 19.7725 5.392500000000002 0 0 0
1197 4 1.7974999999999994 21.57 7.190000000000001 0 0 0
1198 2 3.594999999999999 19.7725 7.190000000000001 0 0 0
1199 5 3.594999999999999 21.57 5.392500000000002 0 0 0
1200 3 1.7974999999999994 19.7725 8.9875 0 0 0
1201 5 1.7974999999999994 21.57 10.785 0 0 0
1202 2 3.594999999999999 19.7725 10.785 0 0 0
1203 1 3.594999999999999 21.57 8.9875 0 0 0
1204 3 1.7974999999999994 19.7725 12.582500000000003 0 0 0
1205 2 1.7974999999999994 21.57 14.380000000000003 0 0 0
1206 2 3.594999999999999 19.7725 14.380000000000003 0 0 0
1207 2 3.594999999999999 21.57 12.582500000000003 0 0 0
1208 5 1.7974999999999994 19.7725 16.177500000000002 0 0 0
1209 3 1.7974999999999994 21.57 17.975 0 0 0
1210 3 3.594999999999999 19.7725 17.975 0 0 0
1211 4 3.594999999999999 21.57 16.177500000000002 0 0 0
1212 2 1.7974999999999994 19.7725 19.7725 0 0 0
1213 2 1.7974999999999994 21.57 21.57 0 0 0
1214 1 3.594999999999999 19.7725 21.57 0 0 0
1215 4 3.594999999999999 21.57 19.7725 0 0 0
1216 1 1.7974999999999994 19.7725 23.367500000000003 0 0 0
1217 4 1.7974999999999994 21.57 25.165000000000003 0 0 0
1218 5 3.594999999999999 19.7725 25.165000000000003 0 0 0
1219 3 3.594999999999999 21.57 23.367500000000003 0 0 0
1220 5 1.7974999999999994 19.7725 26.962500000000002 0 0 0
1221 2 1.7974999999999994 21.57 28.76 0 0 0
1222 4 3.594999999999999 19.7725 28.76 0 0 0
1223 3 3.594999999999999 21.57 26.962500000000002 0 0 0
1224 2 1.7974999999999994 19.7725 30.557500000000005 0 0 0
1225 4 1.7974999999999994 21.57 32.355000000000004 0 0 0
1226 2 3.594999999999999 19.7725 32.355000000000004 0 0 0
1227 2 3.594999999999999 21.57 30.557500000000005 0 0 0
1265 3 1.7974999999999994 21.57 0.30500000000000943 0 0 0
1266 1 3.594999999999999 19.7725 0.30500000000000943 0 0 0
1268 3 1.7974999999999994 25.165000000000003 0 0 0 0
1269 4 3.594999999999999 23.367500000000003 0 0 0 0
1270 2 1.7974999999999994 23.367500000000003 1.7974999999999994 0 0 0
1271 4 1.7974999999999994 25.165000000000003 3.594999999999999 0 0 0
1272 2 3.594999999999999 23.367500000000003 3.594999999999999 0 0 0
1273 3 3.594999999999999 25.165000000000003 1.7974999999999994 0 0 0
1274 4 1.7974999999999994 23.367500000000003 5.392500000000002 0 0 0
1275 4 1.7974999999999994 25.165000000000003 7.190000000000001 0 0 0
1276 1 3.594999999999999 23.367500000000003 7.190000000000001 0 0 0
1277 5 3.594999999999999 25.165000000000003 5.392500000000002 0 0 0
1278 3 1.7974999999999994 23.367500000000003 8.9875 0 0 0
1279 3 1.7974999999999994 25.165000000000003 10.785 0 0 0
1280 4 3.594999999999999 23.367500000000003 10.785 0 0 0
1281 5 3.594999999999999 25.165000000000003 8.9875 0 0 0
1282 1 1.7974999999999994 23.367500000000003 12.582500000000003 0 0 0
1283 2 1.7974999999999994 25.165000000000003 14.380000000000003 0 0 0
1284 3 3.594999999999999 23.367500000000003 14.380000000000003 0 0 0
1285 4 3.594999999999999 25.165000000000003 12.582500000000003 0 0 0
1286 3 1.7974999999999994 23.367500000000003 16.177500000000002 0 0 0
1287 2 1.7974999999999994 25.165000000000003 17.975 0 0 0
1288 5 3.594999999999999 23.367500000000003 17.975 0 0 0
1289 4 3.594999999999999 25.165000000000003 16.177500000000002 0 0 0
1290 3 1.7974999999999994 23.367500000000003 19.7725 0 0 0
1291 2 1.7974999999999994 25.165000000000003 21.57 0 0 0
1292 2 3.594999999999999 23.367500000000003 21.57 0 0 0
1293 3 3.594999999999999 25.165000000000003 19.7725 0 0 0
1294 2 1.7974999999999994 23.367500000000003 23.367500000000003 0 0 0
1295 2 1.7974999999999994 25.165000000000003 25.165000000000003 0 0 0
1296 2 3.594999999999999 23.367500000000003 25.165000000000003 0 0 0
1297 5 3.594999999999999 25.165000000000003 23.367500000000003 0 0 0
1298 5 1.7974999999999994 23.367500000000003 26.962500000000002 0 0 0
1299 1 1.7974999999999994 25.165000000000003 28.76 0 0 0
1300 5 3.594999999999999 23.367500000000003 28.76 0 0 0
1301 3 3.594999999999999 25.165000000000003 26.962500000000002 0 0 0
1302 4 1.7974999999999994 23.367500000000003 30.557500000000005 0 0 0
1303 1 1.7974999999999994 25.165000000000003 32.355000000000004 0 0 0
1304 3 3.594999999999999 23.367500000000003 32.355000000000004 0 0 0
1305 2 3.594999999999999 25.165000000000003 30.557500000000005 0 0 0
1343 1 1.7974999999999994 25.165000000000003 0.30500000000000943 0 0 0
1344 1 3.594999999999999 23.367500000000003 0.30500000000000943 0 0 0
1346 2 1.7974999999999994 28.76 0 0 0 0
1347 4 3.594999999999999 26.962500000000002 0 0 0 0
1348 4 1.7974999999999994 26.962500000000002 1.7974999999999994 0 0 0
1349 3 1.7974999999999994 28.76 3.594999999999999 0 0 0
1350 1 3.594999999999999 26.962500000000002 3.594999999999999 0 0 0
1351 2 3.594999999999999 28.76 1.7974999999999994 0 0 0
1352 1 1.7974999999999994 26.962500000000002 5.392500000000002 0 0 0
1353 2 1.7974999999999994 28.76 7.190000000000001 0 0 0
1354 5 3.594999999999999 26.962500000000002 7.190000000000001 0 0 0
1355 4 3.594999999999999 28.76 5.392500000000002 0 0 0
1356 1 1.7974999999999994 26.962500000000002 8.9875 0 0 0
1357 2 1.7974999999999994 28.76 10.785 0 0 0
1358 2 3.594999999999999 26.962500000000002 10.785 0 0 0
1359 3 3.594999999999999 28.76 8.9875 0 0 0
1360 2 1.7974999999999994 26.962500000000002 12.582500000000003 0 0 0
1361 1 1.7974999999999994 28.76 14.380000000000003 0 0 0
1362 5 3.594999999999999 26.962500000000002 14.380000000000003 0 0 0
1363 3 3.594999999999999 28.76 12.582500000000003 0 0 0
1364 3 1.7974999999999994 26.962500000000002 16.177500000000002 0 0 0
1365 3 1.7974999999999994 28.76 17.975 0 0 0
1366 3 3.594999999999999 26.962500000000002 17.975 0 0 0
1367 5 3.594999999999999 28.76 16.177500000000002 0 0 0
1368 1 1.7974999999999994 26.962500000000002 19.7725 0 0 0
1369 5 1.7974999999999994 28.76 21.57 0 0 0
1370 2 3.594999999999999 26.962500000000002 21.57 0 0 0
1371 5 3.594999999999999 28.76 19.7725 0 0 0
1372 2 1.7974999999999994 26.962500000000002 23.367500000000003 0 0 0
1373 5 1.7974999999999994 28.76 25.165000000000003 0 0 0
1374 1 3.594999999999999 26.962500000000002 25.165000000000003 0 0 0
1375 2 3.594999999999999 28.76 23.367500000000003 0 0 0
1376 1 1.7974999999999994 26.962500000000002 26.962500000000002 0 0 0
1377 1 1.7974999999999994 28.76 28.76 0 0 0
1378 3 3.594999999999999 26.962500000000002 28.76 0 0 0
1379 3 3.594999999999999 28.76 26.962500000000002 0 0 0
1380 4 1.7974999999999994 26.962500000000002 30.557500000000005 0 0 0
1381 3 1.7974999999999994 28.76 32.355000000000004 0 0 0
1382 4 3.594999999999999 26.962500000000002 32.355000000000004 0 0 0
1383 1 3.594999999999999 28.76 30.557500000000005 0 0 0
1421 2 1.7974999999999994 28.76 0.30500000000000943 0 0 0
1422 4 3.594999999999999 26.962500000000002 0.30500000000000943 0 0 0
1424 5 1.7974999999999994 32.355000000000004 0 0 0 0
1425 5 3.594999999999999 30.557500000000005 0 0 0 0
1426 2 1.7974999999999994 30.557500000000005 1.7974999999999994 0 0 0
1427 3 1.7974999999999994 32.355000000000004 3.594999999999999 0 0 0
1428 1 3.594999999999999 30.557500000000005 3.594999999999999 0 0 0
1429 3 3.594999999999999 32.355000000000004 1.7974999999999994 0 0 0
1430 4 1.7974999999999994 30.557500000000005 5.392500000000002 0 0 0
1431 4 1.7974999999999994 32.355000000000004 7.190000000000001 0 0 0
1432 4 3.594999999999999 30.557500000000005 7.190000000000001 0 0 0
1433 1 3.594999999999999 32.355000000000004 5.392500000000002 0 0 0
1434 3 1.7974999999999994 30.557500000000005 8.9875 0 0 0
1435 3 1.7974999999999994 32.355000000000004 10.785 0 0 0
1436 4 3.594999999999999 30.557500000000005 10.785 0 0 0
1437 5 3.594999999999999 32.355000000000004 8.9875 0 0 0
1438 1 1.7974999999999994 30.557500000000005 12.582500000000003 0 0 0
1439 3 1.7974999999999994 32.355000000000004 14.380000000000003 0 0 0
1440 3 3.594999999999999 30.557500000000005 14.380000000000003 0 0 0
1441 2 3.594999999999999 32.355000000000004 12.582500000000003 0 0 0
1442 1 1.7974999999999994 30.557500000000005 16.177500000000002 0 0 0