model_files/CuFeNi/CuFeNi_30000/CuFeNi_310/CuFeNi_310_fcc_30527_temp.data (written by ASE) 

30527 	 atoms 
3  atom types
0.0                      82  xlo xhi
0.0                      82  ylo yhi
0.0                      82  zlo zhi


Atoms 

     1   1  7.1054273576010019e-15      37.590000000000011       39.38000000000001
     2   1  7.1054273576010019e-15       39.38000000000001      37.590000000000011
     3   1  7.1054273576010019e-15      37.590000000000011      42.960000000000008
     4   1  7.1054273576010019e-15       39.38000000000001      41.170000000000009
     5   1  7.1054273576010019e-15       39.38000000000001      44.750000000000014
     6   1  7.1054273576010019e-15      41.170000000000009       39.38000000000001
     7   1  7.1054273576010019e-15      42.960000000000008      37.590000000000011
     8   1  7.1054273576010019e-15      41.170000000000009      42.960000000000008
     9   1  7.1054273576010019e-15      42.960000000000008      41.170000000000009
    10   1  7.1054273576010019e-15      42.960000000000008      44.750000000000014
    11   1  7.1054273576010019e-15      44.750000000000014       39.38000000000001
    12   1  7.1054273576010019e-15      44.750000000000014      42.960000000000008
    13   1      3.5800000000000054      26.850000000000009      28.640000000000008
    14   1      3.5800000000000054      28.640000000000008      26.850000000000009
    15   1      3.5800000000000054      26.850000000000009      32.220000000000006
    16   1      3.5800000000000054      28.640000000000008       30.43000000000001
    17   1      3.5800000000000054      26.850000000000009      35.800000000000004
    18   1      3.5800000000000054      28.640000000000008      34.010000000000005
    19   1      3.5800000000000054      26.850000000000009       39.38000000000001
    20   1      3.5800000000000054      28.640000000000008      37.590000000000011
    21   1      3.5800000000000054      26.850000000000009      42.960000000000008
    22   1      3.5800000000000054      28.640000000000008      41.170000000000009
    23   1      3.5800000000000054      26.850000000000009      46.540000000000006
    24   1      3.5800000000000054      28.640000000000008      44.750000000000014
    25   1      3.5800000000000054      26.850000000000009      50.120000000000019
    26   1      3.5800000000000054      28.640000000000008      48.330000000000013
    27   1      3.5800000000000054      26.850000000000009       53.70000000000001
    28   1      3.5800000000000054      28.640000000000008      51.910000000000011
    29   1      3.5800000000000054      28.640000000000008      55.490000000000016
    30   1      3.5800000000000054       30.43000000000001      28.640000000000008
    31   1      3.5800000000000054      32.220000000000006      26.850000000000009
    32   1      1.7900000000000065      32.220000000000006      32.220000000000006
    33   1      3.5800000000000054       30.43000000000001      32.220000000000006
    34   1      3.5800000000000054      32.220000000000006       30.43000000000001
    35   1      1.7900000000000065      32.220000000000006      35.800000000000004
    36   1      3.5800000000000054       30.43000000000001      35.800000000000004
    37   1      3.5800000000000054      32.220000000000006      34.010000000000005
    38   1      1.7900000000000065      32.220000000000006       39.38000000000001
    39   1      3.5800000000000054       30.43000000000001       39.38000000000001
    40   1      3.5800000000000054      32.220000000000006      37.590000000000011
    41   1      1.7900000000000065      32.220000000000006      42.960000000000008
    42   1      3.5800000000000054       30.43000000000001      42.960000000000008
    43   1      3.5800000000000054      32.220000000000006      41.170000000000009
    44   1      1.7900000000000065      32.220000000000006      46.540000000000006
    45   1      3.5800000000000054       30.43000000000001      46.540000000000006
    46   1      3.5800000000000054      32.220000000000006      44.750000000000014
    47   1      1.7900000000000065      32.220000000000006      50.120000000000019
    48   1      3.5800000000000054       30.43000000000001      50.120000000000019
    49   1      3.5800000000000054      32.220000000000006      48.330000000000013
    50   1      3.5800000000000054       30.43000000000001       53.70000000000001
    51   1      3.5800000000000054      32.220000000000006      51.910000000000011
    52   1      3.5800000000000054      32.220000000000006      55.490000000000016
    53   1      3.5800000000000054      34.010000000000005      28.640000000000008
    54   1      3.5800000000000054      35.800000000000004      26.850000000000009
    55   1      1.7900000000000065      35.800000000000004      32.220000000000006
    56   1      3.5800000000000054      34.010000000000005      32.220000000000006
    57   1      3.5800000000000054      35.800000000000004       30.43000000000001
    58   1      1.7900000000000065      34.010000000000005      34.010000000000005
    59   1      1.7900000000000065      35.800000000000004      35.800000000000004
    60   1      3.5800000000000054      34.010000000000005      35.800000000000004
    61   1      3.5800000000000054      35.800000000000004      34.010000000000005
    62   1      1.7900000000000065      34.010000000000005      37.590000000000011
    63   1      1.7900000000000065      35.800000000000004       39.38000000000001
    64   1      3.5800000000000054      34.010000000000005       39.38000000000001
    65   1      3.5800000000000054      35.800000000000004      37.590000000000011
    66   1      1.7900000000000065      34.010000000000005      41.170000000000009
    67   1      1.7900000000000065      35.800000000000004      42.960000000000008
    68   1      3.5800000000000054      34.010000000000005      42.960000000000008
    69   1      3.5800000000000054      35.800000000000004      41.170000000000009
    70   1      1.7900000000000065      34.010000000000005      44.750000000000014
    71   1      1.7900000000000065      35.800000000000004      46.540000000000006
    72   1      3.5800000000000054      34.010000000000005      46.540000000000006
    73   1      3.5800000000000054      35.800000000000004      44.750000000000014
    74   1      1.7900000000000065      34.010000000000005      48.330000000000013
    75   1      1.7900000000000065      35.800000000000004      50.120000000000019
    76   1      3.5800000000000054      34.010000000000005      50.120000000000019
    77   1      3.5800000000000054      35.800000000000004      48.330000000000013
    78   1      3.5800000000000054      34.010000000000005       53.70000000000001
    79   1      3.5800000000000054      35.800000000000004      51.910000000000011
    80   1      3.5800000000000054      35.800000000000004      55.490000000000016
    81   1      3.5800000000000054      37.590000000000011      28.640000000000008
    82   1      3.5800000000000054       39.38000000000001      26.850000000000009
    83   1      1.7900000000000065       39.38000000000001      32.220000000000006
    84   1      3.5800000000000054      37.590000000000011      32.220000000000006
    85   1      3.5800000000000054       39.38000000000001       30.43000000000001
    86   1      1.7900000000000065      37.590000000000011      34.010000000000005
    87   1      1.7900000000000065       39.38000000000001      35.800000000000004
    88   1      3.5800000000000054      37.590000000000011      35.800000000000004
    89   1      3.5800000000000054       39.38000000000001      34.010000000000005
    90   1      1.7900000000000065      37.590000000000011      37.590000000000011
    91   1      1.7900000000000065       39.38000000000001       39.38000000000001
    92   1      3.5800000000000054      37.590000000000011       39.38000000000001
    93   1      3.5800000000000054       39.38000000000001      37.590000000000011
    94   1      1.7900000000000065      37.590000000000011      41.170000000000009
    95   1      1.7900000000000065       39.38000000000001      42.960000000000008
    96   1      3.5800000000000054      37.590000000000011      42.960000000000008
    97   1      3.5800000000000054       39.38000000000001      41.170000000000009
    98   1      1.7900000000000065      37.590000000000011      44.750000000000014
    99   1      1.7900000000000065       39.38000000000001      46.540000000000006
   100   1      3.5800000000000054      37.590000000000011      46.540000000000006
   101   1      3.5800000000000054       39.38000000000001      44.750000000000014
   102   1      1.7900000000000065      37.590000000000011      48.330000000000013
   103   1      1.7900000000000065       39.38000000000001      50.120000000000019
   104   1      3.5800000000000054      37.590000000000011      50.120000000000019
   105   1      3.5800000000000054       39.38000000000001      48.330000000000013
   106   1      3.5800000000000054      37.590000000000011       53.70000000000001
   107   1      3.5800000000000054       39.38000000000001      51.910000000000011
   108   1      3.5800000000000054       39.38000000000001      55.490000000000016
   109   1      3.5800000000000054      41.170000000000009      28.640000000000008
   110   1      3.5800000000000054      42.960000000000008      26.850000000000009
   111   1      1.7900000000000065      42.960000000000008      32.220000000000006
   112   1      3.5800000000000054      41.170000000000009      32.220000000000006
   113   1      3.5800000000000054      42.960000000000008       30.43000000000001
   114   1      1.7900000000000065      41.170000000000009      34.010000000000005
   115   1      1.7900000000000065      42.960000000000008      35.800000000000004
   116   1      3.5800000000000054      41.170000000000009      35.800000000000004
   117   1      3.5800000000000054      42.960000000000008      34.010000000000005
   118   1      1.7900000000000065      41.170000000000009      37.590000000000011
   119   1      1.7900000000000065      42.960000000000008       39.38000000000001
   120   1      3.5800000000000054      41.170000000000009       39.38000000000001
   121   1      3.5800000000000054      42.960000000000008      37.590000000000011
   122   1      1.7900000000000065      41.170000000000009      41.170000000000009
   123   1      1.7900000000000065      42.960000000000008      42.960000000000008
   124   1      3.5800000000000054      41.170000000000009      42.960000000000008
   125   1      3.5800000000000054      42.960000000000008      41.170000000000009
   126   1      1.7900000000000065      41.170000000000009      44.750000000000014
   127   1      1.7900000000000065      42.960000000000008      46.540000000000006
   128   1      3.5800000000000054      41.170000000000009      46.540000000000006
   129   1      3.5800000000000054      42.960000000000008      44.750000000000014
   130   1      1.7900000000000065      41.170000000000009      48.330000000000013
   131   1      1.7900000000000065      42.960000000000008      50.120000000000019
   132   1      3.5800000000000054      41.170000000000009      50.120000000000019
   133   1      3.5800000000000054      42.960000000000008      48.330000000000013
   134   1      3.5800000000000054      41.170000000000009       53.70000000000001
   135   1      3.5800000000000054      42.960000000000008      51.910000000000011
   136   1      3.5800000000000054      42.960000000000008      55.490000000000016
   137   1      3.5800000000000054      44.750000000000014      28.640000000000008
   138   1      3.5800000000000054      46.540000000000006      26.850000000000009
   139   1      1.7900000000000065      46.540000000000006      32.220000000000006
   140   1      3.5800000000000054      44.750000000000014      32.220000000000006
   141   1      3.5800000000000054      46.540000000000006       30.43000000000001
   142   1      1.7900000000000065      44.750000000000014      34.010000000000005
   143   1      1.7900000000000065      46.540000000000006      35.800000000000004
   144   1      3.5800000000000054      44.750000000000014      35.800000000000004
   145   1      3.5800000000000054      46.540000000000006      34.010000000000005
   146   1      1.7900000000000065      44.750000000000014      37.590000000000011
   147   1      1.7900000000000065      46.540000000000006       39.38000000000001
   148   1      3.5800000000000054      44.750000000000014       39.38000000000001
   149   1      3.5800000000000054      46.540000000000006      37.590000000000011
   150   1      1.7900000000000065      44.750000000000014      41.170000000000009
   151   1      1.7900000000000065      46.540000000000006      42.960000000000008
   152   1      3.5800000000000054      44.750000000000014      42.960000000000008
   153   1      3.5800000000000054      46.540000000000006      41.170000000000009
   154   1      1.7900000000000065      44.750000000000014      44.750000000000014
   155   1      1.7900000000000065      46.540000000000006      46.540000000000006
   156   1      3.5800000000000054      44.750000000000014      46.540000000000006
   157   1      3.5800000000000054      46.540000000000006      44.750000000000014
   158   1      1.7900000000000065      44.750000000000014      48.330000000000013
   159   1      1.7900000000000065      46.540000000000006      50.120000000000019
   160   1      3.5800000000000054      44.750000000000014      50.120000000000019
   161   1      3.5800000000000054      46.540000000000006      48.330000000000013
   162   1      3.5800000000000054      44.750000000000014       53.70000000000001
   163   1      3.5800000000000054      46.540000000000006      51.910000000000011
   164   1      3.5800000000000054      46.540000000000006      55.490000000000016
   165   1      3.5800000000000054      48.330000000000013      28.640000000000008
   166   1      3.5800000000000054      50.120000000000019      26.850000000000009
   167   1      1.7900000000000065      50.120000000000019      32.220000000000006
   168   1      3.5800000000000054      48.330000000000013      32.220000000000006
   169   1      3.5800000000000054      50.120000000000019       30.43000000000001
   170   1      1.7900000000000065      48.330000000000013      34.010000000000005
   171   1      1.7900000000000065      50.120000000000019      35.800000000000004
   172   1      3.5800000000000054      48.330000000000013      35.800000000000004
   173   1      3.5800000000000054      50.120000000000019      34.010000000000005
   174   1      1.7900000000000065      48.330000000000013      37.590000000000011
   175   1      1.7900000000000065      50.120000000000019       39.38000000000001
   176   1      3.5800000000000054      48.330000000000013       39.38000000000001
   177   1      3.5800000000000054      50.120000000000019      37.590000000000011
   178   1      1.7900000000000065      48.330000000000013      41.170000000000009
   179   1      1.7900000000000065      50.120000000000019      42.960000000000008
   180   1      3.5800000000000054      48.330000000000013      42.960000000000008
   181   1      3.5800000000000054      50.120000000000019      41.170000000000009
   182   1      1.7900000000000065      48.330000000000013      44.750000000000014
   183   1      1.7900000000000065      50.120000000000019      46.540000000000006
   184   1      3.5800000000000054      48.330000000000013      46.540000000000006
   185   1      3.5800000000000054      50.120000000000019      44.750000000000014
   186   1      1.7900000000000065      48.330000000000013      48.330000000000013
   187   1      1.7900000000000065      50.120000000000019      50.120000000000019
   188   1      3.5800000000000054      48.330000000000013      50.120000000000019
   189   1      3.5800000000000054      50.120000000000019      48.330000000000013
   190   1      3.5800000000000054      48.330000000000013       53.70000000000001
   191   1      3.5800000000000054      50.120000000000019      51.910000000000011
   192   1      3.5800000000000054      50.120000000000019      55.490000000000016
   193   1      3.5800000000000054      51.910000000000011      28.640000000000008
   194   1      3.5800000000000054       53.70000000000001      26.850000000000009
   195   1      3.5800000000000054      51.910000000000011      32.220000000000006
   196   1      3.5800000000000054       53.70000000000001       30.43000000000001
   197   1      3.5800000000000054      51.910000000000011      35.800000000000004
   198   1      3.5800000000000054       53.70000000000001      34.010000000000005
   199   1      3.5800000000000054      51.910000000000011       39.38000000000001
   200   1      3.5800000000000054       53.70000000000001      37.590000000000011
   201   1      3.5800000000000054      51.910000000000011      42.960000000000008
   202   1      3.5800000000000054       53.70000000000001      41.170000000000009
   203   1      3.5800000000000054      51.910000000000011      46.540000000000006
   204   1      3.5800000000000054       53.70000000000001      44.750000000000014
   205   1      3.5800000000000054      51.910000000000011      50.120000000000019
   206   1      3.5800000000000054       53.70000000000001      48.330000000000013
   207   1      3.5800000000000054      51.910000000000011       53.70000000000001
   208   1      3.5800000000000054       53.70000000000001      51.910000000000011
   209   1      3.5800000000000054       53.70000000000001      55.490000000000016
   210   1      3.5800000000000054      55.490000000000016      28.640000000000008
   211   1      3.5800000000000054      55.490000000000016      32.220000000000006
   212   1      3.5800000000000054      55.490000000000016      35.800000000000004
   213   1      3.5800000000000054      55.490000000000016       39.38000000000001
   214   1      3.5800000000000054      55.490000000000016      42.960000000000008
   215   1      3.5800000000000054      55.490000000000016      46.540000000000006
   216   1      3.5800000000000054      55.490000000000016      50.120000000000019
   217   1      3.5800000000000054      55.490000000000016       53.70000000000001
   218   1      7.1600000000000037      16.110000000000007      17.900000000000006
   219   1      7.1600000000000037      17.900000000000006      16.110000000000007
   220   1      7.1600000000000037      16.110000000000007      21.480000000000011
   221   1      7.1600000000000037      17.900000000000006      19.690000000000008
   222   1      7.1600000000000037      16.110000000000007      25.060000000000009
   223   1      7.1600000000000037      17.900000000000006       23.27000000000001
   224   1      7.1600000000000037      16.110000000000007      28.640000000000008
   225   1      7.1600000000000037      17.900000000000006      26.850000000000009
   226   1      7.1600000000000037      16.110000000000007      32.220000000000006
   227   1      7.1600000000000037      17.900000000000006       30.43000000000001
   228   1      7.1600000000000037      16.110000000000007      35.800000000000004
   229   1      7.1600000000000037      17.900000000000006      34.010000000000005
   230   1      7.1600000000000037      16.110000000000007       39.38000000000001
   231   1      7.1600000000000037      17.900000000000006      37.590000000000011
   232   1      7.1600000000000037      16.110000000000007      42.960000000000008
   233   1      7.1600000000000037      17.900000000000006      41.170000000000009
   234   1      7.1600000000000037      16.110000000000007      46.540000000000006
   235   1      7.1600000000000037      17.900000000000006      44.750000000000014
   236   1      7.1600000000000037      16.110000000000007      50.120000000000019
   237   1      7.1600000000000037      17.900000000000006      48.330000000000013
   238   1      7.1600000000000037      16.110000000000007       53.70000000000001
   239   1      7.1600000000000037      17.900000000000006      51.910000000000011
   240   1      7.1600000000000037      16.110000000000007      57.280000000000015
   241   1      7.1600000000000037      17.900000000000006      55.490000000000016
   242   1      7.1600000000000037      16.110000000000007      60.860000000000007
   243   1      7.1600000000000037      17.900000000000006      59.070000000000007
   244   1      7.1600000000000037      16.110000000000007      64.440000000000012
   245   1      7.1600000000000037      17.900000000000006      62.650000000000013
   246   1      7.1600000000000037      17.900000000000006      66.230000000000004
   247   1      7.1600000000000037      19.690000000000008      17.900000000000006
   248   1      7.1600000000000037      21.480000000000011      16.110000000000007
   249   1      5.3700000000000117      21.480000000000011      21.480000000000011
   250   1      7.1600000000000037      19.690000000000008      21.480000000000011
   251   1      7.1600000000000037      21.480000000000011      19.690000000000008
   252   1      5.3700000000000117      21.480000000000011      25.060000000000009
   253   1      7.1600000000000037      19.690000000000008      25.060000000000009
   254   1      7.1600000000000037      21.480000000000011       23.27000000000001
   255   1      5.3700000000000117      21.480000000000011      28.640000000000008
   256   1      7.1600000000000037      19.690000000000008      28.640000000000008
   257   1      7.1600000000000037      21.480000000000011      26.850000000000009
   258   1      5.3700000000000117      21.480000000000011      32.220000000000006
   259   1      7.1600000000000037      19.690000000000008      32.220000000000006
   260   1      7.1600000000000037      21.480000000000011       30.43000000000001
   261   1      5.3700000000000117      21.480000000000011      35.800000000000004
   262   1      7.1600000000000037      19.690000000000008      35.800000000000004
   263   1      7.1600000000000037      21.480000000000011      34.010000000000005
   264   1      5.3700000000000117      21.480000000000011       39.38000000000001
   265   1      7.1600000000000037      19.690000000000008       39.38000000000001
   266   1      7.1600000000000037      21.480000000000011      37.590000000000011
   267   1      5.3700000000000117      21.480000000000011      42.960000000000008
   268   1      7.1600000000000037      19.690000000000008      42.960000000000008
   269   1      7.1600000000000037      21.480000000000011      41.170000000000009
   270   1      5.3700000000000117      21.480000000000011      46.540000000000006
   271   1      7.1600000000000037      19.690000000000008      46.540000000000006
   272   1      7.1600000000000037      21.480000000000011      44.750000000000014
   273   1      5.3700000000000117      21.480000000000011      50.120000000000019
   274   1      7.1600000000000037      19.690000000000008      50.120000000000019
   275   1      7.1600000000000037      21.480000000000011      48.330000000000013
   276   1      5.3700000000000117      21.480000000000011       53.70000000000001
   277   1      7.1600000000000037      19.690000000000008       53.70000000000001
   278   1      7.1600000000000037      21.480000000000011      51.910000000000011
   279   1      5.3700000000000117      21.480000000000011      57.280000000000015
   280   1      7.1600000000000037      19.690000000000008      57.280000000000015
   281   1      7.1600000000000037      21.480000000000011      55.490000000000016
   282   1      5.3700000000000117      21.480000000000011      60.860000000000007
   283   1      7.1600000000000037      19.690000000000008      60.860000000000007
   284   1      7.1600000000000037      21.480000000000011      59.070000000000007
   285   1      7.1600000000000037      19.690000000000008      64.440000000000012
   286   1      7.1600000000000037      21.480000000000011      62.650000000000013
   287   1      7.1600000000000037      21.480000000000011      66.230000000000004
   288   1      7.1600000000000037       23.27000000000001      17.900000000000006
   289   1      7.1600000000000037      25.060000000000009      16.110000000000007
   290   1      5.3700000000000117      25.060000000000009      21.480000000000011
   291   1      7.1600000000000037       23.27000000000001      21.480000000000011
   292   1      7.1600000000000037      25.060000000000009      19.690000000000008
   293   1      5.3700000000000117       23.27000000000001       23.27000000000001
   294   1      5.3700000000000117      25.060000000000009      25.060000000000009
   295   1      7.1600000000000037       23.27000000000001      25.060000000000009
   296   1      7.1600000000000037      25.060000000000009       23.27000000000001
   297   1      5.3700000000000117       23.27000000000001      26.850000000000009
   298   1      5.3700000000000117      25.060000000000009      28.640000000000008
   299   1      7.1600000000000037       23.27000000000001      28.640000000000008
   300   1      7.1600000000000037      25.060000000000009      26.850000000000009
   301   1      5.3700000000000117       23.27000000000001       30.43000000000001
   302   1      5.3700000000000117      25.060000000000009      32.220000000000006
   303   1      7.1600000000000037       23.27000000000001      32.220000000000006
   304   1      7.1600000000000037      25.060000000000009       30.43000000000001
   305   1      5.3700000000000117       23.27000000000001      34.010000000000005
   306   1      5.3700000000000117      25.060000000000009      35.800000000000004
   307   1      7.1600000000000037       23.27000000000001      35.800000000000004
   308   1      7.1600000000000037      25.060000000000009      34.010000000000005
   309   1      5.3700000000000117       23.27000000000001      37.590000000000011
   310   1      5.3700000000000117      25.060000000000009       39.38000000000001
   311   1      7.1600000000000037       23.27000000000001       39.38000000000001
   312   1      7.1600000000000037      25.060000000000009      37.590000000000011
   313   1      5.3700000000000117       23.27000000000001      41.170000000000009
   314   1      5.3700000000000117      25.060000000000009      42.960000000000008
   315   1      7.1600000000000037       23.27000000000001      42.960000000000008
   316   1      7.1600000000000037      25.060000000000009      41.170000000000009
   317   1      5.3700000000000117       23.27000000000001      44.750000000000014
   318   1      5.3700000000000117      25.060000000000009      46.540000000000006
   319   1      7.1600000000000037       23.27000000000001      46.540000000000006
   320   1      7.1600000000000037      25.060000000000009      44.750000000000014
   321   1      5.3700000000000117       23.27000000000001      48.330000000000013
   322   1      5.3700000000000117      25.060000000000009      50.120000000000019
   323   1      7.1600000000000037       23.27000000000001      50.120000000000019
   324   1      7.1600000000000037      25.060000000000009      48.330000000000013
   325   1      5.3700000000000117       23.27000000000001      51.910000000000011
   326   1      5.3700000000000117      25.060000000000009       53.70000000000001
   327   1      7.1600000000000037       23.27000000000001       53.70000000000001
   328   1      7.1600000000000037      25.060000000000009      51.910000000000011
   329   1      5.3700000000000117       23.27000000000001      55.490000000000016
   330   1      5.3700000000000117      25.060000000000009      57.280000000000015
   331   1      7.1600000000000037       23.27000000000001      57.280000000000015
   332   1      7.1600000000000037      25.060000000000009      55.490000000000016
   333   1      5.3700000000000117       23.27000000000001      59.070000000000007
   334   1      5.3700000000000117      25.060000000000009      60.860000000000007
   335   1      7.1600000000000037       23.27000000000001      60.860000000000007
   336   1      7.1600000000000037      25.060000000000009      59.070000000000007
   337   1      7.1600000000000037       23.27000000000001      64.440000000000012
   338   1      7.1600000000000037      25.060000000000009      62.650000000000013
   339   1      7.1600000000000037      25.060000000000009      66.230000000000004
   340   1      7.1600000000000037      26.850000000000009      17.900000000000006
   341   1      7.1600000000000037      28.640000000000008      16.110000000000007
   342   1      5.3700000000000117      28.640000000000008      21.480000000000011
   343   1      7.1600000000000037      26.850000000000009      21.480000000000011
   344   1      7.1600000000000037      28.640000000000008      19.690000000000008
   345   1      5.3700000000000117      26.850000000000009       23.27000000000001
   346   1      5.3700000000000117      28.640000000000008      25.060000000000009
   347   1      7.1600000000000037      26.850000000000009      25.060000000000009
   348   1      7.1600000000000037      28.640000000000008       23.27000000000001
   349   1      5.3700000000000117      26.850000000000009      26.850000000000009
   350   1      5.3700000000000117      28.640000000000008      28.640000000000008
   351   1      7.1600000000000037      26.850000000000009      28.640000000000008
   352   1      7.1600000000000037      28.640000000000008      26.850000000000009
   353   1      5.3700000000000117      26.850000000000009       30.43000000000001
   354   1      5.3700000000000117      28.640000000000008      32.220000000000006
   355   1      7.1600000000000037      26.850000000000009      32.220000000000006
   356   1      7.1600000000000037      28.640000000000008       30.43000000000001
   357   1      5.3700000000000117      26.850000000000009      34.010000000000005
   358   1      5.3700000000000117      28.640000000000008      35.800000000000004