model_files/PtFe/PtFe_30000/PtFe_410/PtFe_410_fcc_29755_temp.data (written by ASE) 

29755 	 atoms 
2  atom types
0.0                      82  xlo xhi
0.0                      82  ylo yhi
0.0                      82  zlo zhi


Atoms 

     1   1      1.8799999999999955      30.079999999999991      31.959999999999997
     2   1      1.8799999999999955      31.959999999999997      30.079999999999991
     3   1      1.8799999999999955      30.079999999999991      35.719999999999992
     4   1      1.8799999999999955      31.959999999999997      33.839999999999989
     5   1      1.8799999999999955      30.079999999999991      39.479999999999997
     6   1      1.8799999999999955      31.959999999999997      37.599999999999994
     7   1      1.8799999999999955      30.079999999999991      43.239999999999995
     8   1      1.8799999999999955      31.959999999999997      41.359999999999992
     9   1      1.8799999999999955      30.079999999999991      46.999999999999993
    10   1      1.8799999999999955      31.959999999999997      45.119999999999997
    11   1      1.8799999999999955      30.079999999999991      50.759999999999998
    12   1      1.8799999999999955      31.959999999999997      48.879999999999995
    13   1      1.8799999999999955      31.959999999999997      52.639999999999993
    14   1      1.8799999999999955      33.839999999999989      31.959999999999997
    15   1      1.8799999999999955      35.719999999999992      30.079999999999991
    16   1      1.8799999999999955      33.839999999999989      35.719999999999992
    17   1      1.8799999999999955      35.719999999999992      33.839999999999989
    18   1      1.8799999999999955      33.839999999999989      39.479999999999997
    19   1      1.8799999999999955      35.719999999999992      37.599999999999994
    20   1      1.8799999999999955      33.839999999999989      43.239999999999995
    21   1      1.8799999999999955      35.719999999999992      41.359999999999992
    22   1      1.8799999999999955      33.839999999999989      46.999999999999993
    23   1      1.8799999999999955      35.719999999999992      45.119999999999997
    24   1      1.8799999999999955      33.839999999999989      50.759999999999998
    25   1      1.8799999999999955      35.719999999999992      48.879999999999995
    26   1      1.8799999999999955      35.719999999999992      52.639999999999993
    27   1      1.8799999999999955      37.599999999999994      31.959999999999997
    28   1      1.8799999999999955      39.479999999999997      30.079999999999991
    29   1      1.8799999999999955      37.599999999999994      35.719999999999992
    30   1      1.8799999999999955      39.479999999999997      33.839999999999989
    31   1      81.999999999999986      37.599999999999994      37.599999999999994
    32   1      81.999999999999986      39.479999999999997      39.479999999999997
    33   1      1.8799999999999955      37.599999999999994      39.479999999999997
    34   1      1.8799999999999955      39.479999999999997      37.599999999999994
    35   1      81.999999999999986      37.599999999999994      41.359999999999992
    36   1      81.999999999999986      39.479999999999997      43.239999999999995
    37   1      1.8799999999999955      37.599999999999994      43.239999999999995
    38   1      1.8799999999999955      39.479999999999997      41.359999999999992
    39   1      81.999999999999986      37.599999999999994      45.119999999999997
    40   1      1.8799999999999955      37.599999999999994      46.999999999999993
    41   1      1.8799999999999955      39.479999999999997      45.119999999999997
    42   1      1.8799999999999955      37.599999999999994      50.759999999999998
    43   1      1.8799999999999955      39.479999999999997      48.879999999999995
    44   1      1.8799999999999955      39.479999999999997      52.639999999999993
    45   1      1.8799999999999955      41.359999999999992      31.959999999999997
    46   1      1.8799999999999955      43.239999999999995      30.079999999999991
    47   1      1.8799999999999955      41.359999999999992      35.719999999999992
    48   1      1.8799999999999955      43.239999999999995      33.839999999999989
    49   1      81.999999999999986      41.359999999999992      37.599999999999994
    50   1      81.999999999999986      43.239999999999995      39.479999999999997
    51   1      1.8799999999999955      41.359999999999992      39.479999999999997
    52   1      1.8799999999999955      43.239999999999995      37.599999999999994
    53   1      81.999999999999986      41.359999999999992      41.359999999999992
    54   1      81.999999999999986      43.239999999999995      43.239999999999995
    55   1      1.8799999999999955      41.359999999999992      43.239999999999995
    56   1      1.8799999999999955      43.239999999999995      41.359999999999992
    57   1      81.999999999999986      41.359999999999992      45.119999999999997
    58   1      1.8799999999999955      41.359999999999992      46.999999999999993
    59   1      1.8799999999999955      43.239999999999995      45.119999999999997
    60   1      1.8799999999999955      41.359999999999992      50.759999999999998
    61   1      1.8799999999999955      43.239999999999995      48.879999999999995
    62   1      1.8799999999999955      43.239999999999995      52.639999999999993
    63   1      1.8799999999999955      45.119999999999997      31.959999999999997
    64   1      1.8799999999999955      46.999999999999993      30.079999999999991
    65   1      1.8799999999999955      45.119999999999997      35.719999999999992
    66   1      1.8799999999999955      46.999999999999993      33.839999999999989
    67   1      81.999999999999986      45.119999999999997      37.599999999999994
    68   1      1.8799999999999955      45.119999999999997      39.479999999999997
    69   1      1.8799999999999955      46.999999999999993      37.599999999999994
    70   1      81.999999999999986      45.119999999999997      41.359999999999992
    71   1      1.8799999999999955      45.119999999999997      43.239999999999995
    72   1      1.8799999999999955      46.999999999999993      41.359999999999992
    73   1      81.999999999999986      45.119999999999997      45.119999999999997
    74   1      1.8799999999999955      45.119999999999997      46.999999999999993
    75   1      1.8799999999999955      46.999999999999993      45.119999999999997
    76   1      1.8799999999999955      45.119999999999997      50.759999999999998
    77   1      1.8799999999999955      46.999999999999993      48.879999999999995
    78   1      1.8799999999999955      46.999999999999993      52.639999999999993
    79   1      1.8799999999999955      48.879999999999995      31.959999999999997
    80   1      1.8799999999999955      50.759999999999998      30.079999999999991
    81   1      1.8799999999999955      48.879999999999995      35.719999999999992
    82   1      1.8799999999999955      50.759999999999998      33.839999999999989
    83   1      1.8799999999999955      48.879999999999995      39.479999999999997
    84   1      1.8799999999999955      50.759999999999998      37.599999999999994
    85   1      1.8799999999999955      48.879999999999995      43.239999999999995
    86   1      1.8799999999999955      50.759999999999998      41.359999999999992
    87   1      1.8799999999999955      48.879999999999995      46.999999999999993
    88   1      1.8799999999999955      50.759999999999998      45.119999999999997
    89   1      1.8799999999999955      48.879999999999995      50.759999999999998
    90   1      1.8799999999999955      50.759999999999998      48.879999999999995
    91   1      1.8799999999999955      50.759999999999998      52.639999999999993
    92   1      1.8799999999999955      52.639999999999993      31.959999999999997
    93   1      1.8799999999999955      52.639999999999993      35.719999999999992
    94   1      1.8799999999999955      52.639999999999993      39.479999999999997
    95   1      1.8799999999999955      52.639999999999993      43.239999999999995
    96   1      1.8799999999999955      52.639999999999993      46.999999999999993
    97   1      1.8799999999999955      52.639999999999993      50.759999999999998
    98   1      5.6399999999999935      15.039999999999992      16.919999999999991
    99   1      5.6399999999999935      16.919999999999991      15.039999999999992
   100   1      5.6399999999999935      15.039999999999992      20.679999999999993
   101   1      5.6399999999999935      16.919999999999991      18.799999999999994
   102   1      5.6399999999999935      15.039999999999992      24.439999999999994
   103   1      5.6399999999999935      16.919999999999991      22.559999999999999
   104   1      5.6399999999999935      15.039999999999992      28.199999999999992
   105   1      5.6399999999999935      16.919999999999991      26.319999999999997
   106   1      5.6399999999999935      15.039999999999992      31.959999999999997
   107   1      5.6399999999999935      16.919999999999991      30.079999999999991
   108   1      5.6399999999999935      15.039999999999992      35.719999999999992
   109   1      5.6399999999999935      16.919999999999991      33.839999999999989
   110   1      5.6399999999999935      15.039999999999992      39.479999999999997
   111   1      5.6399999999999935      16.919999999999991      37.599999999999994
   112   1      5.6399999999999935      15.039999999999992      43.239999999999995
   113   1      5.6399999999999935      16.919999999999991      41.359999999999992
   114   1      5.6399999999999935      15.039999999999992      46.999999999999993
   115   1      5.6399999999999935      16.919999999999991      45.119999999999997
   116   1      5.6399999999999935      15.039999999999992      50.759999999999998
   117   1      5.6399999999999935      16.919999999999991      48.879999999999995
   118   1      5.6399999999999935      15.039999999999992      54.519999999999996
   119   1      5.6399999999999935      16.919999999999991      52.639999999999993
   120   1      5.6399999999999935      15.039999999999992      58.279999999999994
   121   1      5.6399999999999935      16.919999999999991      56.399999999999999
   122   1      5.6399999999999935      15.039999999999992      62.039999999999992
   123   1      5.6399999999999935      16.919999999999991      60.159999999999989
   124   1      5.6399999999999935      15.039999999999992      65.799999999999983
   125   1      5.6399999999999935      16.919999999999991      63.919999999999995
   126   1      5.6399999999999935      16.919999999999991      67.679999999999993
   127   1      5.6399999999999935      18.799999999999994      16.919999999999991
   128   1      5.6399999999999935      20.679999999999993      15.039999999999992
   129   1      5.6399999999999935      18.799999999999994      20.679999999999993
   130   1      5.6399999999999935      20.679999999999993      18.799999999999994
   131   1      5.6399999999999935      18.799999999999994      24.439999999999994
   132   1      5.6399999999999935      20.679999999999993      22.559999999999999
   133   1      5.6399999999999935      18.799999999999994      28.199999999999992
   134   1      5.6399999999999935      20.679999999999993      26.319999999999997
   135   1      5.6399999999999935      18.799999999999994      31.959999999999997
   136   1      5.6399999999999935      20.679999999999993      30.079999999999991
   137   1      5.6399999999999935      18.799999999999994      35.719999999999992
   138   1      5.6399999999999935      20.679999999999993      33.839999999999989
   139   1      5.6399999999999935      18.799999999999994      39.479999999999997
   140   1      5.6399999999999935      20.679999999999993      37.599999999999994
   141   1      5.6399999999999935      18.799999999999994      43.239999999999995
   142   1      5.6399999999999935      20.679999999999993      41.359999999999992
   143   1      5.6399999999999935      18.799999999999994      46.999999999999993
   144   1      5.6399999999999935      20.679999999999993      45.119999999999997
   145   1      5.6399999999999935      18.799999999999994      50.759999999999998
   146   1      5.6399999999999935      20.679999999999993      48.879999999999995
   147   1      5.6399999999999935      18.799999999999994      54.519999999999996
   148   1      5.6399999999999935      20.679999999999993      52.639999999999993
   149   1      5.6399999999999935      18.799999999999994      58.279999999999994
   150   1      5.6399999999999935      20.679999999999993      56.399999999999999
   151   1      5.6399999999999935      18.799999999999994      62.039999999999992
   152   1      5.6399999999999935      20.679999999999993      60.159999999999989
   153   1      5.6399999999999935      18.799999999999994      65.799999999999983
   154   1      5.6399999999999935      20.679999999999993      63.919999999999995
   155   1      5.6399999999999935      20.679999999999993      67.679999999999993
   156   1      5.6399999999999935      22.559999999999999      16.919999999999991
   157   1      5.6399999999999935      24.439999999999994      15.039999999999992
   158   1      5.6399999999999935      22.559999999999999      20.679999999999993
   159   1      5.6399999999999935      24.439999999999994      18.799999999999994
   160   1       3.759999999999998      22.559999999999999      22.559999999999999
   161   1       3.759999999999998      24.439999999999994      24.439999999999994
   162   1      5.6399999999999935      22.559999999999999      24.439999999999994
   163   1      5.6399999999999935      24.439999999999994      22.559999999999999
   164   1       3.759999999999998      22.559999999999999      26.319999999999997
   165   1       3.759999999999998      24.439999999999994      28.199999999999992
   166   1      5.6399999999999935      22.559999999999999      28.199999999999992
   167   1      5.6399999999999935      24.439999999999994      26.319999999999997
   168   1       3.759999999999998      22.559999999999999      30.079999999999991
   169   1       3.759999999999998      24.439999999999994      31.959999999999997
   170   1      5.6399999999999935      22.559999999999999      31.959999999999997
   171   1      5.6399999999999935      24.439999999999994      30.079999999999991
   172   1       3.759999999999998      22.559999999999999      33.839999999999989
   173   1       3.759999999999998      24.439999999999994      35.719999999999992
   174   1      5.6399999999999935      22.559999999999999      35.719999999999992
   175   1      5.6399999999999935      24.439999999999994      33.839999999999989
   176   1       3.759999999999998      22.559999999999999      37.599999999999994
   177   1       3.759999999999998      24.439999999999994      39.479999999999997
   178   1      5.6399999999999935      22.559999999999999      39.479999999999997
   179   1      5.6399999999999935      24.439999999999994      37.599999999999994
   180   1       3.759999999999998      22.559999999999999      41.359999999999992
   181   1       3.759999999999998      24.439999999999994      43.239999999999995
   182   1      5.6399999999999935      22.559999999999999      43.239999999999995
   183   1      5.6399999999999935      24.439999999999994      41.359999999999992
   184   1       3.759999999999998      22.559999999999999      45.119999999999997
   185   1       3.759999999999998      24.439999999999994      46.999999999999993
   186   1      5.6399999999999935      22.559999999999999      46.999999999999993
   187   1      5.6399999999999935      24.439999999999994      45.119999999999997
   188   1       3.759999999999998      22.559999999999999      48.879999999999995
   189   1       3.759999999999998      24.439999999999994      50.759999999999998
   190   1      5.6399999999999935      22.559999999999999      50.759999999999998
   191   1      5.6399999999999935      24.439999999999994      48.879999999999995
   192   1       3.759999999999998      22.559999999999999      52.639999999999993
   193   1       3.759999999999998      24.439999999999994      54.519999999999996
   194   1      5.6399999999999935      22.559999999999999      54.519999999999996
   195   1      5.6399999999999935      24.439999999999994      52.639999999999993
   196   1       3.759999999999998      22.559999999999999      56.399999999999999
   197   1       3.759999999999998      24.439999999999994      58.279999999999994
   198   1      5.6399999999999935      22.559999999999999      58.279999999999994
   199   1      5.6399999999999935      24.439999999999994      56.399999999999999
   200   1       3.759999999999998      22.559999999999999      60.159999999999989
   201   1      5.6399999999999935      22.559999999999999      62.039999999999992
   202   1      5.6399999999999935      24.439999999999994      60.159999999999989
   203   1      5.6399999999999935      22.559999999999999      65.799999999999983
   204   1      5.6399999999999935      24.439999999999994      63.919999999999995
   205   1      5.6399999999999935      24.439999999999994      67.679999999999993
   206   1      5.6399999999999935      26.319999999999997      16.919999999999991
   207   1      5.6399999999999935      28.199999999999992      15.039999999999992
   208   1      5.6399999999999935      26.319999999999997      20.679999999999993
   209   1      5.6399999999999935      28.199999999999992      18.799999999999994
   210   1       3.759999999999998      26.319999999999997      22.559999999999999
   211   1       3.759999999999998      28.199999999999992      24.439999999999994
   212   1      5.6399999999999935      26.319999999999997      24.439999999999994
   213   1      5.6399999999999935      28.199999999999992      22.559999999999999
   214   1       3.759999999999998      26.319999999999997      26.319999999999997
   215   1       3.759999999999998      28.199999999999992      28.199999999999992
   216   1      5.6399999999999935      26.319999999999997      28.199999999999992
   217   1      5.6399999999999935      28.199999999999992      26.319999999999997
   218   1       3.759999999999998      26.319999999999997      30.079999999999991
   219   1       3.759999999999998      28.199999999999992      31.959999999999997
   220   1      5.6399999999999935      26.319999999999997      31.959999999999997
   221   1      5.6399999999999935      28.199999999999992      30.079999999999991
   222   1       3.759999999999998      26.319999999999997      33.839999999999989
   223   1       3.759999999999998      28.199999999999992      35.719999999999992
   224   1      5.6399999999999935      26.319999999999997      35.719999999999992
   225   1      5.6399999999999935      28.199999999999992      33.839999999999989
   226   1       3.759999999999998      26.319999999999997      37.599999999999994
   227   1       3.759999999999998      28.199999999999992      39.479999999999997
   228   1      5.6399999999999935      26.319999999999997      39.479999999999997
   229   1      5.6399999999999935      28.199999999999992      37.599999999999994
   230   1       3.759999999999998      26.319999999999997      41.359999999999992
   231   1       3.759999999999998      28.199999999999992      43.239999999999995
   232   1      5.6399999999999935      26.319999999999997      43.239999999999995
   233   1      5.6399999999999935      28.199999999999992      41.359999999999992
   234   1       3.759999999999998      26.319999999999997      45.119999999999997
   235   1       3.759999999999998      28.199999999999992      46.999999999999993
   236   1      5.6399999999999935      26.319999999999997      46.999999999999993
   237   1      5.6399999999999935      28.199999999999992      45.119999999999997
   238   1       3.759999999999998      26.319999999999997      48.879999999999995
   239   1       3.759999999999998      28.199999999999992      50.759999999999998
   240   1      5.6399999999999935      26.319999999999997      50.759999999999998
   241   1      5.6399999999999935      28.199999999999992      48.879999999999995
   242   1       3.759999999999998      26.319999999999997      52.639999999999993
   243   1       3.759999999999998      28.199999999999992      54.519999999999996
   244   1      5.6399999999999935      26.319999999999997      54.519999999999996
   245   1      5.6399999999999935      28.199999999999992      52.639999999999993
   246   1       3.759999999999998      26.319999999999997      56.399999999999999
   247   1       3.759999999999998      28.199999999999992      58.279999999999994
   248   1      5.6399999999999935      26.319999999999997      58.279999999999994
   249   1      5.6399999999999935      28.199999999999992      56.399999999999999
   250   1       3.759999999999998      26.319999999999997      60.159999999999989
   251   1      5.6399999999999935      26.319999999999997      62.039999999999992
   252   1      5.6399999999999935      28.199999999999992      60.159999999999989
   253   1      5.6399999999999935      26.319999999999997      65.799999999999983
   254   1      5.6399999999999935      28.199999999999992      63.919999999999995
   255   1      5.6399999999999935      28.199999999999992      67.679999999999993
   256   1      5.6399999999999935      30.079999999999991      16.919999999999991
   257   1      5.6399999999999935      31.959999999999997      15.039999999999992
   258   1      5.6399999999999935      30.079999999999991      20.679999999999993
   259   1      5.6399999999999935      31.959999999999997      18.799999999999994
   260   1       3.759999999999998      30.079999999999991      22.559999999999999
   261   1       3.759999999999998      31.959999999999997      24.439999999999994
   262   1      5.6399999999999935      30.079999999999991      24.439999999999994
   263   1      5.6399999999999935      31.959999999999997      22.559999999999999
   264   1       3.759999999999998      30.079999999999991      26.319999999999997
   265   1       3.759999999999998      31.959999999999997      28.199999999999992
   266   1      5.6399999999999935      30.079999999999991      28.199999999999992
   267   1      5.6399999999999935      31.959999999999997      26.319999999999997
   268   1       3.759999999999998      30.079999999999991      30.079999999999991
   269   1       3.759999999999998      31.959999999999997      31.959999999999997
   270   1      5.6399999999999935      30.079999999999991      31.959999999999997
   271   1      5.6399999999999935      31.959999999999997      30.079999999999991
   272   1       3.759999999999998      30.079999999999991      33.839999999999989
   273   1       3.759999999999998      31.959999999999997      35.719999999999992
   274   1      5.6399999999999935      30.079999999999991      35.719999999999992
   275   1      5.6399999999999935      31.959999999999997      33.839999999999989
   276   1       3.759999999999998      30.079999999999991      37.599999999999994
   277   1       3.759999999999998      31.959999999999997      39.479999999999997
   278   1      5.6399999999999935      30.079999999999991      39.479999999999997
   279   1      5.6399999999999935      31.959999999999997      37.599999999999994
   280   1       3.759999999999998      30.079999999999991      41.359999999999992
   281   1       3.759999999999998      31.959999999999997      43.239999999999995
   282   1      5.6399999999999935      30.079999999999991      43.239999999999995
   283   1      5.6399999999999935      31.959999999999997      41.359999999999992
   284   1       3.759999999999998      30.079999999999991      45.119999999999997
   285   1       3.759999999999998      31.959999999999997      46.999999999999993
   286   1      5.6399999999999935      30.079999999999991      46.999999999999993
   287   1      5.6399999999999935      31.959999999999997      45.119999999999997
   288   1       3.759999999999998      30.079999999999991      48.879999999999995
   289   1       3.759999999999998      31.959999999999997      50.759999999999998
   290   1      5.6399999999999935      30.079999999999991      50.759999999999998
   291   1      5.6399999999999935      31.959999999999997      48.879999999999995
   292   1       3.759999999999998      30.079999999999991      52.639999999999993
   293   1       3.759999999999998      31.959999999999997      54.519999999999996
   294   1      5.6399999999999935      30.079999999999991      54.519999999999996
   295   1      5.6399999999999935      31.959999999999997      52.639999999999993
   296   1       3.759999999999998      30.079999999999991      56.399999999999999
   297   1       3.759999999999998      31.959999999999997      58.279999999999994
   298   1      5.6399999999999935      30.079999999999991      58.279999999999994
   299   1      5.6399999999999935      31.959999999999997      56.399999999999999
   300   1       3.759999999999998      30.079999999999991      60.159999999999989
   301   1      5.6399999999999935      30.079999999999991      62.039999999999992
   302   1      5.6399999999999935      31.959999999999997      60.159999999999989
   303   1      5.6399999999999935      30.079999999999991      65.799999999999983
   304   1      5.6399999999999935      31.959999999999997      63.919999999999995
   305   1      5.6399999999999935      31.959999999999997      67.679999999999993
   306   1      5.6399999999999935      33.839999999999989      16.919999999999991
   307   1      5.6399999999999935      35.719999999999992      15.039999999999992
   308   1      5.6399999999999935      33.839999999999989      20.679999999999993
   309   1      5.6399999999999935      35.719999999999992      18.799999999999994
   310   1       3.759999999999998      33.839999999999989      22.559999999999999
   311   1       3.759999999999998      35.719999999999992      24.439999999999994
   312   1      5.6399999999999935      33.839999999999989      24.439999999999994
   313   1      5.6399999999999935      35.719999999999992      22.559999999999999
   314   1       3.759999999999998      33.839999999999989      26.319999999999997
   315   1       3.759999999999998      35.719999999999992      28.199999999999992
   316   1      5.6399999999999935      33.839999999999989      28.199999999999992
   317   1      5.6399999999999935      35.719999999999992      26.319999999999997
   318   1       3.759999999999998      33.839999999999989      30.079999999999991
   319   1       3.759999999999998      35.719999999999992      31.959999999999997
   320   1      5.6399999999999935      33.839999999999989      31.959999999999997
   321   1      5.6399999999999935      35.719999999999992      30.079999999999991
   322   1       3.759999999999998      33.839999999999989      33.839999999999989
   323   1       3.759999999999998      35.719999999999992      35.719999999999992
   324   1      5.6399999999999935      33.839999999999989      35.719999999999992
   325   1      5.6399999999999935      35.719999999999992      33.839999999999989
   326   1       3.759999999999998      33.839999999999989      37.599999999999994
   327   1       3.759999999999998      35.719999999999992      39.479999999999997
   328   1      5.6399999999999935      33.839999999999989      39.479999999999997
   329   1      5.6399999999999935      35.719999999999992      37.599999999999994
   330   1       3.759999999999998      33.839999999999989      41.359999999999992
   331   1       3.759999999999998      35.719999999999992      43.239999999999995
   332   1      5.6399999999999935      33.839999999999989      43.239999999999995
   333   1      5.6399999999999935      35.719999999999992      41.359999999999992
   334   1       3.759999999999998      33.839999999999989      45.119999999999997
   335   1       3.759999999999998      35.719999999999992      46.999999999999993
   336   1      5.6399999999999935      33.839999999999989      46.999999999999993
   337   1      5.6399999999999935      35.719999999999992      45.119999999999997
   338   1       3.759999999999998      33.839999999999989      48.879999999999995
   339   1       3.759999999999998      35.719999999999992      50.759999999999998
   340   1      5.6399999999999935      33.839999999999989      50.759999999999998
   341   1      5.6399999999999935      35.719999999999992      48.879999999999995
   342   1       3.759999999999998      33.839999999999989      52.639999999999993
   343   1       3.759999999999998      35.719999999999992      54.519999999999996
   344   1      5.6399999999999935      33.839999999999989      54.519999999999996
   345   1      5.6399999999999935      35.719999999999992      52.639999999999993
   346   1       3.759999999999998      33.839999999999989      56.399999999999999
   347   1       3.759999999999998      35.719999999999992      58.279999999999994
   348   1      5.6399999999999935      33.839999999999989      58.279999999999994
   349   1      5.6399999999999935      35.719999999999992      56.399999999999999
   350   1       3.759999999999998      33.839999999999989      60.159999999999989
   351   1      5.6399999999999935      33.839999999999989      62.039999999999992
   352   1      5.6399999999999935      35.719999999999992      60.159999999999989
   353   1      5.6399999999999935      33.839999999999989      65.799999999999983
   354   1      5.6399999999999935      35.719999999999992      63.919999999999995
   355   1      5.6399999999999935      35.719999999999992      67.679999999999993
   356   1      5.6399999999999935      37.599999999999994      16.919999999999991
   357   1      5.6399999999999935      39.479999999999997      15.039999999999992
   358   1      5.6399999999999935      37.599999999999994      20.679999999999993