model_files/Co/Co_30000/Co_221/data.Co_221_hcp_29329 (written by ASE) 

29329 	 atoms 
1  atom types
0.0                      80  xlo xhi
0.0                      80  ylo yhi
0.0                      80  zlo zhi


Atoms 

     1   1      1.2550000000000097      38.905000000000015      40.160000000000011
     2   1      1.2550000000000097      40.160000000000011      38.905000000000015
     3   1  7.1054273576010019e-15      40.160000000000011      40.160000000000011
     4   1      1.2550000000000097      40.160000000000011      41.415000000000006
     5   1      1.2550000000000097      41.415000000000006      40.160000000000011
     6   1      3.7650000000000077       36.39500000000001      37.650000000000006
     7   1      3.7650000000000077       36.39500000000001      40.160000000000011
     8   1      3.7650000000000077       36.39500000000001      42.670000000000002
     9   1      3.7650000000000077      37.650000000000006       36.39500000000001
    10   1      2.5100000000000122      37.650000000000006      37.650000000000006
    11   1      2.5100000000000122      38.905000000000015      38.905000000000015
    12   1      3.7650000000000077      37.650000000000006      38.905000000000015
    13   1      3.7650000000000077      38.905000000000015      37.650000000000006
    14   1      2.5100000000000122      37.650000000000006      40.160000000000011
    15   1      2.5100000000000122      38.905000000000015      41.415000000000006
    16   1      3.7650000000000077      37.650000000000006      41.415000000000006
    17   1      3.7650000000000077      38.905000000000015      40.160000000000011
    18   1      2.5100000000000122      37.650000000000006      42.670000000000002
    19   1      3.7650000000000077      37.650000000000006      43.925000000000011
    20   1      3.7650000000000077      38.905000000000015      42.670000000000002
    21   1      3.7650000000000077      40.160000000000011       36.39500000000001
    22   1      2.5100000000000122      40.160000000000011      37.650000000000006
    23   1      2.5100000000000122      41.415000000000006      38.905000000000015
    24   1      3.7650000000000077      40.160000000000011      38.905000000000015
    25   1      3.7650000000000077      41.415000000000006      37.650000000000006
    26   1      2.5100000000000122      40.160000000000011      40.160000000000011
    27   1      2.5100000000000122      41.415000000000006      41.415000000000006
    28   1      3.7650000000000077      40.160000000000011      41.415000000000006
    29   1      3.7650000000000077      41.415000000000006      40.160000000000011
    30   1      2.5100000000000122      40.160000000000011      42.670000000000002
    31   1      3.7650000000000077      40.160000000000011      43.925000000000011
    32   1      3.7650000000000077      41.415000000000006      42.670000000000002
    33   1      3.7650000000000077      42.670000000000002       36.39500000000001
    34   1      2.5100000000000122      42.670000000000002      37.650000000000006
    35   1      3.7650000000000077      42.670000000000002      38.905000000000015
    36   1      3.7650000000000077      43.925000000000011      37.650000000000006
    37   1      2.5100000000000122      42.670000000000002      40.160000000000011
    38   1      3.7650000000000077      42.670000000000002      41.415000000000006
    39   1      3.7650000000000077      43.925000000000011      40.160000000000011
    40   1      2.5100000000000122      42.670000000000002      42.670000000000002
    41   1      3.7650000000000077      42.670000000000002      43.925000000000011
    42   1      3.7650000000000077      43.925000000000011      42.670000000000002
    43   1      6.2750000000000128      33.885000000000012      37.650000000000006
    44   1      6.2750000000000128      33.885000000000012      40.160000000000011
    45   1      6.2750000000000128      33.885000000000012      42.670000000000002
    46   1      5.0200000000000102       36.39500000000001       36.39500000000001
    47   1      6.2750000000000128      35.140000000000015       36.39500000000001
    48   1      6.2750000000000128       36.39500000000001      35.140000000000015
    49   1      5.0200000000000102      35.140000000000015      37.650000000000006
    50   1      5.0200000000000102       36.39500000000001      38.905000000000015
    51   1      6.2750000000000128      35.140000000000015      38.905000000000015
    52   1      6.2750000000000128       36.39500000000001      37.650000000000006
    53   1      5.0200000000000102      35.140000000000015      40.160000000000011
    54   1      5.0200000000000102       36.39500000000001      41.415000000000006
    55   1      6.2750000000000128      35.140000000000015      41.415000000000006
    56   1      6.2750000000000128       36.39500000000001      40.160000000000011
    57   1      5.0200000000000102      35.140000000000015      42.670000000000002
    58   1      5.0200000000000102       36.39500000000001      43.925000000000011
    59   1      6.2750000000000128      35.140000000000015      43.925000000000011
    60   1      6.2750000000000128       36.39500000000001      42.670000000000002
    61   1      6.2750000000000128       36.39500000000001      45.180000000000007
    62   1      6.2750000000000128      37.650000000000006      33.885000000000012
    63   1      5.0200000000000102      37.650000000000006      35.140000000000015
    64   1      5.0200000000000102      38.905000000000015       36.39500000000001
    65   1      6.2750000000000128      37.650000000000006       36.39500000000001
    66   1      6.2750000000000128      38.905000000000015      35.140000000000015
    67   1      5.0200000000000102      37.650000000000006      37.650000000000006
    68   1      5.0200000000000102      38.905000000000015      38.905000000000015
    69   1      6.2750000000000128      37.650000000000006      38.905000000000015
    70   1      6.2750000000000128      38.905000000000015      37.650000000000006
    71   1      5.0200000000000102      37.650000000000006      40.160000000000011
    72   1      5.0200000000000102      38.905000000000015      41.415000000000006
    73   1      6.2750000000000128      37.650000000000006      41.415000000000006
    74   1      6.2750000000000128      38.905000000000015      40.160000000000011
    75   1      5.0200000000000102      37.650000000000006      42.670000000000002
    76   1      5.0200000000000102      38.905000000000015      43.925000000000011
    77   1      6.2750000000000128      37.650000000000006      43.925000000000011
    78   1      6.2750000000000128      38.905000000000015      42.670000000000002
    79   1      5.0200000000000102      37.650000000000006      45.180000000000007
    80   1      6.2750000000000128      37.650000000000006      46.435000000000016
    81   1      6.2750000000000128      38.905000000000015      45.180000000000007
    82   1      6.2750000000000128      40.160000000000011      33.885000000000012
    83   1      5.0200000000000102      40.160000000000011      35.140000000000015
    84   1      5.0200000000000102      41.415000000000006       36.39500000000001
    85   1      6.2750000000000128      40.160000000000011       36.39500000000001
    86   1      6.2750000000000128      41.415000000000006      35.140000000000015
    87   1      5.0200000000000102      40.160000000000011      37.650000000000006
    88   1      5.0200000000000102      41.415000000000006      38.905000000000015
    89   1      6.2750000000000128      40.160000000000011      38.905000000000015
    90   1      6.2750000000000128      41.415000000000006      37.650000000000006
    91   1      5.0200000000000102      40.160000000000011      40.160000000000011
    92   1      5.0200000000000102      41.415000000000006      41.415000000000006
    93   1      6.2750000000000128      40.160000000000011      41.415000000000006
    94   1      6.2750000000000128      41.415000000000006      40.160000000000011
    95   1      5.0200000000000102      40.160000000000011      42.670000000000002
    96   1      5.0200000000000102      41.415000000000006      43.925000000000011
    97   1      6.2750000000000128      40.160000000000011      43.925000000000011
    98   1      6.2750000000000128      41.415000000000006      42.670000000000002
    99   1      5.0200000000000102      40.160000000000011      45.180000000000007
   100   1      6.2750000000000128      40.160000000000011      46.435000000000016
   101   1      6.2750000000000128      41.415000000000006      45.180000000000007
   102   1      6.2750000000000128      42.670000000000002      33.885000000000012
   103   1      5.0200000000000102      42.670000000000002      35.140000000000015
   104   1      5.0200000000000102      43.925000000000011       36.39500000000001
   105   1      6.2750000000000128      42.670000000000002       36.39500000000001
   106   1      6.2750000000000128      43.925000000000011      35.140000000000015
   107   1      5.0200000000000102      42.670000000000002      37.650000000000006
   108   1      5.0200000000000102      43.925000000000011      38.905000000000015
   109   1      6.2750000000000128      42.670000000000002      38.905000000000015
   110   1      6.2750000000000128      43.925000000000011      37.650000000000006
   111   1      5.0200000000000102      42.670000000000002      40.160000000000011
   112   1      5.0200000000000102      43.925000000000011      41.415000000000006
   113   1      6.2750000000000128      42.670000000000002      41.415000000000006
   114   1      6.2750000000000128      43.925000000000011      40.160000000000011
   115   1      5.0200000000000102      42.670000000000002      42.670000000000002
   116   1      5.0200000000000102      43.925000000000011      43.925000000000011
   117   1      6.2750000000000128      42.670000000000002      43.925000000000011
   118   1      6.2750000000000128      43.925000000000011      42.670000000000002
   119   1      5.0200000000000102      42.670000000000002      45.180000000000007
   120   1      6.2750000000000128      42.670000000000002      46.435000000000016
   121   1      6.2750000000000128      43.925000000000011      45.180000000000007
   122   1      6.2750000000000128      45.180000000000007       36.39500000000001
   123   1      5.0200000000000102      45.180000000000007      37.650000000000006
   124   1      6.2750000000000128      45.180000000000007      38.905000000000015
   125   1      6.2750000000000128      46.435000000000016      37.650000000000006
   126   1      5.0200000000000102      45.180000000000007      40.160000000000011
   127   1      6.2750000000000128      45.180000000000007      41.415000000000006
   128   1      6.2750000000000128      46.435000000000016      40.160000000000011
   129   1      5.0200000000000102      45.180000000000007      42.670000000000002
   130   1      6.2750000000000128      45.180000000000007      43.925000000000011
   131   1      6.2750000000000128      46.435000000000016      42.670000000000002
   132   1      8.7850000000000072      31.375000000000011      37.650000000000006
   133   1      8.7850000000000072      31.375000000000011      40.160000000000011
   134   1      8.7850000000000072      31.375000000000011      42.670000000000002
   135   1      7.5300000000000091      33.885000000000012       36.39500000000001
   136   1      8.7850000000000072       32.63000000000001       36.39500000000001
   137   1      8.7850000000000072      33.885000000000012      35.140000000000015
   138   1      7.5300000000000091       32.63000000000001      37.650000000000006
   139   1      7.5300000000000091      33.885000000000012      38.905000000000015
   140   1      8.7850000000000072       32.63000000000001      38.905000000000015
   141   1      8.7850000000000072      33.885000000000012      37.650000000000006
   142   1      7.5300000000000091       32.63000000000001      40.160000000000011
   143   1      7.5300000000000091      33.885000000000012      41.415000000000006
   144   1      8.7850000000000072       32.63000000000001      41.415000000000006
   145   1      8.7850000000000072      33.885000000000012      40.160000000000011
   146   1      7.5300000000000091       32.63000000000001      42.670000000000002
   147   1      7.5300000000000091      33.885000000000012      43.925000000000011
   148   1      8.7850000000000072       32.63000000000001      43.925000000000011
   149   1      8.7850000000000072      33.885000000000012      42.670000000000002
   150   1      8.7850000000000072      33.885000000000012      45.180000000000007
   151   1      7.5300000000000091       36.39500000000001      33.885000000000012
   152   1      8.7850000000000072      35.140000000000015      33.885000000000012
   153   1      8.7850000000000072       36.39500000000001       32.63000000000001
   154   1      7.5300000000000091      35.140000000000015      35.140000000000015
   155   1      7.5300000000000091       36.39500000000001       36.39500000000001
   156   1      8.7850000000000072      35.140000000000015       36.39500000000001
   157   1      8.7850000000000072       36.39500000000001      35.140000000000015
   158   1      7.5300000000000091      35.140000000000015      37.650000000000006
   159   1      7.5300000000000091       36.39500000000001      38.905000000000015
   160   1      8.7850000000000072      35.140000000000015      38.905000000000015
   161   1      8.7850000000000072       36.39500000000001      37.650000000000006
   162   1      7.5300000000000091      35.140000000000015      40.160000000000011
   163   1      7.5300000000000091       36.39500000000001      41.415000000000006
   164   1      8.7850000000000072      35.140000000000015      41.415000000000006
   165   1      8.7850000000000072       36.39500000000001      40.160000000000011
   166   1      7.5300000000000091      35.140000000000015      42.670000000000002
   167   1      7.5300000000000091       36.39500000000001      43.925000000000011
   168   1      8.7850000000000072      35.140000000000015      43.925000000000011
   169   1      8.7850000000000072       36.39500000000001      42.670000000000002
   170   1      7.5300000000000091      35.140000000000015      45.180000000000007
   171   1      7.5300000000000091       36.39500000000001      46.435000000000016
   172   1      8.7850000000000072      35.140000000000015      46.435000000000016
   173   1      8.7850000000000072       36.39500000000001      45.180000000000007
   174   1      8.7850000000000072       36.39500000000001      47.690000000000012
   175   1      8.7850000000000072      37.650000000000006      31.375000000000011
   176   1      7.5300000000000091      37.650000000000006       32.63000000000001
   177   1      7.5300000000000091      38.905000000000015      33.885000000000012
   178   1      8.7850000000000072      37.650000000000006      33.885000000000012
   179   1      8.7850000000000072      38.905000000000015       32.63000000000001
   180   1      7.5300000000000091      37.650000000000006      35.140000000000015
   181   1      7.5300000000000091      38.905000000000015       36.39500000000001
   182   1      8.7850000000000072      37.650000000000006       36.39500000000001
   183   1      8.7850000000000072      38.905000000000015      35.140000000000015
   184   1      7.5300000000000091      37.650000000000006      37.650000000000006
   185   1      7.5300000000000091      38.905000000000015      38.905000000000015
   186   1      8.7850000000000072      37.650000000000006      38.905000000000015
   187   1      8.7850000000000072      38.905000000000015      37.650000000000006
   188   1      7.5300000000000091      37.650000000000006      40.160000000000011
   189   1      7.5300000000000091      38.905000000000015      41.415000000000006
   190   1      8.7850000000000072      37.650000000000006      41.415000000000006
   191   1      8.7850000000000072      38.905000000000015      40.160000000000011
   192   1      7.5300000000000091      37.650000000000006      42.670000000000002
   193   1      7.5300000000000091      38.905000000000015      43.925000000000011
   194   1      8.7850000000000072      37.650000000000006      43.925000000000011
   195   1      8.7850000000000072      38.905000000000015      42.670000000000002
   196   1      7.5300000000000091      37.650000000000006      45.180000000000007
   197   1      7.5300000000000091      38.905000000000015      46.435000000000016
   198   1      8.7850000000000072      37.650000000000006      46.435000000000016
   199   1      8.7850000000000072      38.905000000000015      45.180000000000007
   200   1      7.5300000000000091      37.650000000000006      47.690000000000012
   201   1      8.7850000000000072      37.650000000000006      48.945000000000007
   202   1      8.7850000000000072      38.905000000000015      47.690000000000012
   203   1      8.7850000000000072      40.160000000000011      31.375000000000011
   204   1      7.5300000000000091      40.160000000000011       32.63000000000001
   205   1      7.5300000000000091      41.415000000000006      33.885000000000012
   206   1      8.7850000000000072      40.160000000000011      33.885000000000012
   207   1      8.7850000000000072      41.415000000000006       32.63000000000001
   208   1      7.5300000000000091      40.160000000000011      35.140000000000015
   209   1      7.5300000000000091      41.415000000000006       36.39500000000001
   210   1      8.7850000000000072      40.160000000000011       36.39500000000001
   211   1      8.7850000000000072      41.415000000000006      35.140000000000015
   212   1      7.5300000000000091      40.160000000000011      37.650000000000006
   213   1      7.5300000000000091      41.415000000000006      38.905000000000015
   214   1      8.7850000000000072      40.160000000000011      38.905000000000015
   215   1      8.7850000000000072      41.415000000000006      37.650000000000006
   216   1      7.5300000000000091      40.160000000000011      40.160000000000011
   217   1      7.5300000000000091      41.415000000000006      41.415000000000006
   218   1      8.7850000000000072      40.160000000000011      41.415000000000006
   219   1      8.7850000000000072      41.415000000000006      40.160000000000011
   220   1      7.5300000000000091      40.160000000000011      42.670000000000002
   221   1      7.5300000000000091      41.415000000000006      43.925000000000011
   222   1      8.7850000000000072      40.160000000000011      43.925000000000011
   223   1      8.7850000000000072      41.415000000000006      42.670000000000002
   224   1      7.5300000000000091      40.160000000000011      45.180000000000007
   225   1      7.5300000000000091      41.415000000000006      46.435000000000016
   226   1      8.7850000000000072      40.160000000000011      46.435000000000016
   227   1      8.7850000000000072      41.415000000000006      45.180000000000007
   228   1      7.5300000000000091      40.160000000000011      47.690000000000012
   229   1      8.7850000000000072      40.160000000000011      48.945000000000007
   230   1      8.7850000000000072      41.415000000000006      47.690000000000012
   231   1      8.7850000000000072      42.670000000000002      31.375000000000011
   232   1      7.5300000000000091      42.670000000000002       32.63000000000001
   233   1      7.5300000000000091      43.925000000000011      33.885000000000012
   234   1      8.7850000000000072      42.670000000000002      33.885000000000012
   235   1      8.7850000000000072      43.925000000000011       32.63000000000001
   236   1      7.5300000000000091      42.670000000000002      35.140000000000015
   237   1      7.5300000000000091      43.925000000000011       36.39500000000001
   238   1      8.7850000000000072      42.670000000000002       36.39500000000001
   239   1      8.7850000000000072      43.925000000000011      35.140000000000015
   240   1      7.5300000000000091      42.670000000000002      37.650000000000006
   241   1      7.5300000000000091      43.925000000000011      38.905000000000015
   242   1      8.7850000000000072      42.670000000000002      38.905000000000015
   243   1      8.7850000000000072      43.925000000000011      37.650000000000006
   244   1      7.5300000000000091      42.670000000000002      40.160000000000011
   245   1      7.5300000000000091      43.925000000000011      41.415000000000006
   246   1      8.7850000000000072      42.670000000000002      41.415000000000006
   247   1      8.7850000000000072      43.925000000000011      40.160000000000011
   248   1      7.5300000000000091      42.670000000000002      42.670000000000002
   249   1      7.5300000000000091      43.925000000000011      43.925000000000011
   250   1      8.7850000000000072      42.670000000000002      43.925000000000011
   251   1      8.7850000000000072      43.925000000000011      42.670000000000002
   252   1      7.5300000000000091      42.670000000000002      45.180000000000007
   253   1      7.5300000000000091      43.925000000000011      46.435000000000016
   254   1      8.7850000000000072      42.670000000000002      46.435000000000016
   255   1      8.7850000000000072      43.925000000000011      45.180000000000007
   256   1      7.5300000000000091      42.670000000000002      47.690000000000012
   257   1      8.7850000000000072      42.670000000000002      48.945000000000007
   258   1      8.7850000000000072      43.925000000000011      47.690000000000012
   259   1      8.7850000000000072      45.180000000000007      33.885000000000012
   260   1      7.5300000000000091      45.180000000000007      35.140000000000015
   261   1      7.5300000000000091      46.435000000000016       36.39500000000001
   262   1      8.7850000000000072      45.180000000000007       36.39500000000001
   263   1      8.7850000000000072      46.435000000000016      35.140000000000015
   264   1      7.5300000000000091      45.180000000000007      37.650000000000006
   265   1      7.5300000000000091      46.435000000000016      38.905000000000015
   266   1      8.7850000000000072      45.180000000000007      38.905000000000015
   267   1      8.7850000000000072      46.435000000000016      37.650000000000006
   268   1      7.5300000000000091      45.180000000000007      40.160000000000011
   269   1      7.5300000000000091      46.435000000000016      41.415000000000006
   270   1      8.7850000000000072      45.180000000000007      41.415000000000006
   271   1      8.7850000000000072      46.435000000000016      40.160000000000011
   272   1      7.5300000000000091      45.180000000000007      42.670000000000002
   273   1      7.5300000000000091      46.435000000000016      43.925000000000011
   274   1      8.7850000000000072      45.180000000000007      43.925000000000011
   275   1      8.7850000000000072      46.435000000000016      42.670000000000002
   276   1      7.5300000000000091      45.180000000000007      45.180000000000007
   277   1      8.7850000000000072      45.180000000000007      46.435000000000016
   278   1      8.7850000000000072      46.435000000000016      45.180000000000007
   279   1      8.7850000000000072      47.690000000000012       36.39500000000001
   280   1      7.5300000000000091      47.690000000000012      37.650000000000006
   281   1      8.7850000000000072      47.690000000000012      38.905000000000015
   282   1      8.7850000000000072      48.945000000000007      37.650000000000006
   283   1      7.5300000000000091      47.690000000000012      40.160000000000011
   284   1      8.7850000000000072      47.690000000000012      41.415000000000006
   285   1      8.7850000000000072      48.945000000000007      40.160000000000011
   286   1      7.5300000000000091      47.690000000000012      42.670000000000002
   287   1      8.7850000000000072      47.690000000000012      43.925000000000011
   288   1      8.7850000000000072      48.945000000000007      42.670000000000002
   289   1      11.295000000000009      28.865000000000009      37.650000000000006
   290   1      11.295000000000009      28.865000000000009      40.160000000000011
   291   1      11.295000000000009      28.865000000000009      42.670000000000002
   292   1      11.295000000000009      31.375000000000011       32.63000000000001
   293   1      10.040000000000006      31.375000000000011       36.39500000000001
   294   1      11.295000000000009      30.120000000000005       36.39500000000001
   295   1      11.295000000000009      31.375000000000011      35.140000000000015
   296   1      10.040000000000006      30.120000000000005      37.650000000000006
   297   1      10.040000000000006      31.375000000000011      38.905000000000015
   298   1      11.295000000000009      30.120000000000005      38.905000000000015
   299   1      11.295000000000009      31.375000000000011      37.650000000000006
   300   1      10.040000000000006      30.120000000000005      40.160000000000011
   301   1      10.040000000000006      31.375000000000011      41.415000000000006
   302   1      11.295000000000009      30.120000000000005      41.415000000000006
   303   1      11.295000000000009      31.375000000000011      40.160000000000011
   304   1      10.040000000000006      30.120000000000005      42.670000000000002
   305   1      10.040000000000006      31.375000000000011      43.925000000000011
   306   1      11.295000000000009      30.120000000000005      43.925000000000011
   307   1      11.295000000000009      31.375000000000011      42.670000000000002
   308   1      11.295000000000009      31.375000000000011      45.180000000000007
   309   1      11.295000000000009      31.375000000000011      47.690000000000012
   310   1      11.295000000000009       32.63000000000001      31.375000000000011
   311   1      10.040000000000006       32.63000000000001       32.63000000000001
   312   1      10.040000000000006      33.885000000000012      33.885000000000012
   313   1      11.295000000000009       32.63000000000001      33.885000000000012
   314   1      11.295000000000009      33.885000000000012       32.63000000000001
   315   1      10.040000000000006       32.63000000000001      35.140000000000015
   316   1      10.040000000000006      33.885000000000012       36.39500000000001
   317   1      11.295000000000009       32.63000000000001       36.39500000000001
   318   1      11.295000000000009      33.885000000000012      35.140000000000015
   319   1      10.040000000000006       32.63000000000001      37.650000000000006
   320   1      10.040000000000006      33.885000000000012      38.905000000000015
   321   1      11.295000000000009       32.63000000000001      38.905000000000015
   322   1      11.295000000000009      33.885000000000012      37.650000000000006
   323   1      10.040000000000006       32.63000000000001      40.160000000000011
   324   1      10.040000000000006      33.885000000000012      41.415000000000006
   325   1      11.295000000000009       32.63000000000001      41.415000000000006
   326   1      11.295000000000009      33.885000000000012      40.160000000000011
   327   1      10.040000000000006       32.63000000000001      42.670000000000002
   328   1      10.040000000000006      33.885000000000012      43.925000000000011
   329   1      11.295000000000009       32.63000000000001      43.925000000000011
   330   1      11.295000000000009      33.885000000000012      42.670000000000002
   331   1      10.040000000000006       32.63000000000001      45.180000000000007
   332   1      10.040000000000006      33.885000000000012      46.435000000000016
   333   1      11.295000000000009       32.63000000000001      46.435000000000016
   334   1      11.295000000000009      33.885000000000012      45.180000000000007
   335   1      10.040000000000006       32.63000000000001      47.690000000000012
   336   1      11.295000000000009       32.63000000000001      48.945000000000007
   337   1      11.295000000000009      33.885000000000012      47.690000000000012
   338   1      10.040000000000006       36.39500000000001      31.375000000000011
   339   1      11.295000000000009      35.140000000000015      31.375000000000011
   340   1      11.295000000000009       36.39500000000001      30.120000000000005
   341   1      10.040000000000006      35.140000000000015       32.63000000000001
   342   1      10.040000000000006       36.39500000000001      33.885000000000012
   343   1      11.295000000000009      35.140000000000015      33.885000000000012
   344   1      11.295000000000009       36.39500000000001       32.63000000000001
   345   1      10.040000000000006      35.140000000000015      35.140000000000015
   346   1      10.040000000000006       36.39500000000001       36.39500000000001
   347   1      11.295000000000009      35.140000000000015       36.39500000000001
   348   1      11.295000000000009       36.39500000000001      35.140000000000015
   349   1      10.040000000000006      35.140000000000015      37.650000000000006
   350   1      10.040000000000006       36.39500000000001      38.905000000000015
   351   1      11.295000000000009      35.140000000000015      38.905000000000015
   352   1      11.295000000000009       36.39500000000001      37.650000000000006
   353   1      10.040000000000006      35.140000000000015      40.160000000000011
   354   1      10.040000000000006       36.39500000000001      41.415000000000006
   355   1      11.295000000000009      35.140000000000015      41.415000000000006
   356   1      11.295000000000009       36.39500000000001      40.160000000000011
   357   1      10.040000000000006      35.140000000000015      42.670000000000002
   358   1      10.040000000000006       36.39500000000001      43.925000000000011