model_files/Ni/Ni_30000/Ni_321/data.Ni_321_fcc_29817 (written by ASE) 

29817 	 atoms 
1  atom types
0.0                      98  xlo xhi
0.0                      98  ylo yhi
0.0                      98  zlo zhi


Atoms 

     1   1      1.7600000000000051      43.999999999999993      49.279999999999994
     2   1  7.1054273576010011e-15      47.519999999999996      47.519999999999996
     3   1      1.7600000000000051      45.759999999999998      47.519999999999996
     4   1      1.7600000000000051      47.519999999999996      45.759999999999998
     5   1  7.1054273576010011e-15      47.519999999999996      51.039999999999992
     6   1      1.7600000000000051      45.759999999999998      51.039999999999992
     7   1      1.7600000000000051      47.519999999999996      49.279999999999994
     8   1      1.7600000000000051      47.519999999999996      52.800000000000004
     9   1      1.7600000000000051      49.279999999999994      43.999999999999993
    10   1  7.1054273576010011e-15      51.039999999999992      47.519999999999996
    11   1      1.7600000000000051      49.279999999999994      47.519999999999996
    12   1      1.7600000000000051      51.039999999999992      45.759999999999998
    13   1  7.1054273576010011e-15      49.279999999999994      49.279999999999994
    14   1  7.1054273576010011e-15      51.039999999999992      51.039999999999992
    15   1      1.7600000000000051      49.279999999999994      51.039999999999992
    16   1      1.7600000000000051      51.039999999999992      49.279999999999994
    17   1      1.7600000000000051      49.279999999999994      54.560000000000002
    18   1      1.7600000000000051      51.039999999999992      52.800000000000004
    19   1      1.7600000000000051      52.800000000000004      47.519999999999996
    20   1      1.7600000000000051      52.800000000000004      51.039999999999992
    21   1      1.7600000000000051      54.560000000000002      49.279999999999994
    22   1      5.2800000000000011      40.480000000000004      45.759999999999998
    23   1      5.2800000000000011      40.480000000000004      49.279999999999994
    24   1      5.2800000000000011      40.480000000000004      52.800000000000004
    25   1      3.5200000000000027      43.999999999999993      43.999999999999993
    26   1      5.2800000000000011      42.240000000000002      43.999999999999993
    27   1      5.2800000000000011      43.999999999999993      42.240000000000002
    28   1      3.5200000000000027      43.999999999999993      47.519999999999996
    29   1      5.2800000000000011      42.240000000000002      47.519999999999996
    30   1      5.2800000000000011      43.999999999999993      45.759999999999998
    31   1      3.5200000000000027      42.240000000000002      49.279999999999994
    32   1      3.5200000000000027      43.999999999999993      51.039999999999992
    33   1      5.2800000000000011      42.240000000000002      51.039999999999992
    34   1      5.2800000000000011      43.999999999999993      49.279999999999994
    35   1      3.5200000000000027      43.999999999999993      54.560000000000002
    36   1      5.2800000000000011      42.240000000000002      54.560000000000002
    37   1      5.2800000000000011      43.999999999999993      52.800000000000004
    38   1      5.2800000000000011      43.999999999999993                   56.32
    39   1      5.2800000000000011      45.759999999999998      40.480000000000004
    40   1      3.5200000000000027      47.519999999999996      43.999999999999993
    41   1      5.2800000000000011      45.759999999999998      43.999999999999993
    42   1      5.2800000000000011      47.519999999999996      42.240000000000002
    43   1      3.5200000000000027      45.759999999999998      45.759999999999998
    44   1      3.5200000000000027      47.519999999999996      47.519999999999996
    45   1      5.2800000000000011      45.759999999999998      47.519999999999996
    46   1      5.2800000000000011      47.519999999999996      45.759999999999998
    47   1      3.5200000000000027      45.759999999999998      49.279999999999994
    48   1      3.5200000000000027      47.519999999999996      51.039999999999992
    49   1      5.2800000000000011      45.759999999999998      51.039999999999992
    50   1      5.2800000000000011      47.519999999999996      49.279999999999994
    51   1      3.5200000000000027      45.759999999999998      52.800000000000004
    52   1      3.5200000000000027      47.519999999999996      54.560000000000002
    53   1      5.2800000000000011      45.759999999999998      54.560000000000002
    54   1      5.2800000000000011      47.519999999999996      52.800000000000004
    55   1      5.2800000000000011      45.759999999999998      58.079999999999998
    56   1      5.2800000000000011      47.519999999999996                   56.32
    57   1      5.2800000000000011      49.279999999999994      40.480000000000004
    58   1      3.5200000000000027      49.279999999999994      42.240000000000002
    59   1      3.5200000000000027      51.039999999999992      43.999999999999993
    60   1      5.2800000000000011      49.279999999999994      43.999999999999993
    61   1      5.2800000000000011      51.039999999999992      42.240000000000002
    62   1      3.5200000000000027      49.279999999999994      45.759999999999998
    63   1      3.5200000000000027      51.039999999999992      47.519999999999996
    64   1      5.2800000000000011      49.279999999999994      47.519999999999996
    65   1      5.2800000000000011      51.039999999999992      45.759999999999998
    66   1      3.5200000000000027      49.279999999999994      49.279999999999994
    67   1      3.5200000000000027      51.039999999999992      51.039999999999992
    68   1      5.2800000000000011      49.279999999999994      51.039999999999992
    69   1      5.2800000000000011      51.039999999999992      49.279999999999994
    70   1      3.5200000000000027      49.279999999999994      52.800000000000004
    71   1      3.5200000000000027      51.039999999999992      54.560000000000002
    72   1      5.2800000000000011      49.279999999999994      54.560000000000002
    73   1      5.2800000000000011      51.039999999999992      52.800000000000004
    74   1      3.5200000000000027      49.279999999999994                   56.32
    75   1      5.2800000000000011      49.279999999999994      58.079999999999998
    76   1      5.2800000000000011      51.039999999999992                   56.32
    77   1      5.2800000000000011      52.800000000000004      40.480000000000004
    78   1      3.5200000000000027      54.560000000000002      43.999999999999993
    79   1      5.2800000000000011      52.800000000000004      43.999999999999993
    80   1      5.2800000000000011      54.560000000000002      42.240000000000002
    81   1      3.5200000000000027      52.800000000000004      45.759999999999998
    82   1      3.5200000000000027      54.560000000000002      47.519999999999996
    83   1      5.2800000000000011      52.800000000000004      47.519999999999996
    84   1      5.2800000000000011      54.560000000000002      45.759999999999998
    85   1      3.5200000000000027      52.800000000000004      49.279999999999994
    86   1      3.5200000000000027      54.560000000000002      51.039999999999992
    87   1      5.2800000000000011      52.800000000000004      51.039999999999992
    88   1      5.2800000000000011      54.560000000000002      49.279999999999994
    89   1      3.5200000000000027      52.800000000000004      52.800000000000004
    90   1      3.5200000000000027      54.560000000000002      54.560000000000002
    91   1      5.2800000000000011      52.800000000000004      54.560000000000002
    92   1      5.2800000000000011      54.560000000000002      52.800000000000004
    93   1      5.2800000000000011      52.800000000000004      58.079999999999998
    94   1      5.2800000000000011      54.560000000000002                   56.32
    95   1      5.2800000000000011                   56.32      43.999999999999993
    96   1      5.2800000000000011                   56.32      47.519999999999996
    97   1      5.2800000000000011      58.079999999999998      45.759999999999998
    98   1      3.5200000000000027                   56.32      49.279999999999994
    99   1      5.2800000000000011                   56.32      51.039999999999992
   100   1      5.2800000000000011      58.079999999999998      49.279999999999994
   101   1      5.2800000000000011                   56.32      54.560000000000002
   102   1      5.2800000000000011      58.079999999999998      52.800000000000004
   103   1      8.8000000000000043      33.440000000000005      49.279999999999994
   104   1      8.8000000000000043      36.959999999999994      42.240000000000002
   105   1      7.0400000000000054      36.959999999999994      47.519999999999996
   106   1      8.8000000000000043      35.199999999999996      47.519999999999996
   107   1      8.8000000000000043      36.959999999999994      45.759999999999998
   108   1      7.0400000000000054      36.959999999999994      51.039999999999992
   109   1      8.8000000000000043      35.199999999999996      51.039999999999992
   110   1      8.8000000000000043      36.959999999999994      49.279999999999994
   111   1      8.8000000000000043      36.959999999999994      52.800000000000004
   112   1      8.8000000000000043      36.959999999999994                   56.32
   113   1      7.0400000000000054      40.480000000000004      40.480000000000004
   114   1      8.8000000000000043      38.719999999999999      40.480000000000004
   115   1      8.8000000000000043      40.480000000000004      38.719999999999999
   116   1      7.0400000000000054      40.480000000000004      43.999999999999993
   117   1      8.8000000000000043      38.719999999999999      43.999999999999993
   118   1      8.8000000000000043      40.480000000000004      42.240000000000002
   119   1      7.0400000000000054      38.719999999999999      45.759999999999998
   120   1      7.0400000000000054      40.480000000000004      47.519999999999996
   121   1      8.8000000000000043      38.719999999999999      47.519999999999996
   122   1      8.8000000000000043      40.480000000000004      45.759999999999998
   123   1      7.0400000000000054      38.719999999999999      49.279999999999994
   124   1      7.0400000000000054      40.480000000000004      51.039999999999992
   125   1      8.8000000000000043      38.719999999999999      51.039999999999992
   126   1      8.8000000000000043      40.480000000000004      49.279999999999994
   127   1      7.0400000000000054      38.719999999999999      52.800000000000004
   128   1      7.0400000000000054      40.480000000000004      54.560000000000002
   129   1      8.8000000000000043      38.719999999999999      54.560000000000002
   130   1      8.8000000000000043      40.480000000000004      52.800000000000004
   131   1      7.0400000000000054      40.480000000000004      58.079999999999998
   132   1      8.8000000000000043      38.719999999999999      58.079999999999998
   133   1      8.8000000000000043      40.480000000000004                   56.32
   134   1      8.8000000000000043      40.480000000000004      59.839999999999996
   135   1      8.8000000000000043      42.240000000000002      36.959999999999994
   136   1      7.0400000000000054      43.999999999999993      40.480000000000004
   137   1      8.8000000000000043      42.240000000000002      40.480000000000004
   138   1      8.8000000000000043      43.999999999999993      38.719999999999999
   139   1      7.0400000000000054      42.240000000000002      42.240000000000002
   140   1      7.0400000000000054      43.999999999999993      43.999999999999993
   141   1      8.8000000000000043      42.240000000000002      43.999999999999993
   142   1      8.8000000000000043      43.999999999999993      42.240000000000002
   143   1      7.0400000000000054      42.240000000000002      45.759999999999998
   144   1      7.0400000000000054      43.999999999999993      47.519999999999996
   145   1      8.8000000000000043      42.240000000000002      47.519999999999996
   146   1      8.8000000000000043      43.999999999999993      45.759999999999998
   147   1      7.0400000000000054      42.240000000000002      49.279999999999994
   148   1      7.0400000000000054      43.999999999999993      51.039999999999992
   149   1      8.8000000000000043      42.240000000000002      51.039999999999992
   150   1      8.8000000000000043      43.999999999999993      49.279999999999994
   151   1      7.0400000000000054      42.240000000000002      52.800000000000004
   152   1      7.0400000000000054      43.999999999999993      54.560000000000002
   153   1      8.8000000000000043      42.240000000000002      54.560000000000002
   154   1      8.8000000000000043      43.999999999999993      52.800000000000004
   155   1      7.0400000000000054      42.240000000000002                   56.32
   156   1      7.0400000000000054      43.999999999999993      58.079999999999998
   157   1      8.8000000000000043      42.240000000000002      58.079999999999998
   158   1      8.8000000000000043      43.999999999999993                   56.32
   159   1      8.8000000000000043      42.240000000000002      61.600000000000001
   160   1      8.8000000000000043      43.999999999999993      59.839999999999996
   161   1      7.0400000000000054      47.519999999999996      36.959999999999994
   162   1      8.8000000000000043      45.759999999999998      36.959999999999994
   163   1      8.8000000000000043      47.519999999999996      35.199999999999996
   164   1      7.0400000000000054      45.759999999999998      38.719999999999999
   165   1      7.0400000000000054      47.519999999999996      40.480000000000004
   166   1      8.8000000000000043      45.759999999999998      40.480000000000004
   167   1      8.8000000000000043      47.519999999999996      38.719999999999999
   168   1      7.0400000000000054      45.759999999999998      42.240000000000002
   169   1      7.0400000000000054      47.519999999999996      43.999999999999993
   170   1      8.8000000000000043      45.759999999999998      43.999999999999993
   171   1      8.8000000000000043      47.519999999999996      42.240000000000002
   172   1      7.0400000000000054      45.759999999999998      45.759999999999998
   173   1      7.0400000000000054      47.519999999999996      47.519999999999996
   174   1      8.8000000000000043      45.759999999999998      47.519999999999996
   175   1      8.8000000000000043      47.519999999999996      45.759999999999998
   176   1      7.0400000000000054      45.759999999999998      49.279999999999994
   177   1      7.0400000000000054      47.519999999999996      51.039999999999992
   178   1      8.8000000000000043      45.759999999999998      51.039999999999992
   179   1      8.8000000000000043      47.519999999999996      49.279999999999994
   180   1      7.0400000000000054      45.759999999999998      52.800000000000004
   181   1      7.0400000000000054      47.519999999999996      54.560000000000002
   182   1      8.8000000000000043      45.759999999999998      54.560000000000002
   183   1      8.8000000000000043      47.519999999999996      52.800000000000004
   184   1      7.0400000000000054      45.759999999999998                   56.32
   185   1      7.0400000000000054      47.519999999999996      58.079999999999998
   186   1      8.8000000000000043      45.759999999999998      58.079999999999998
   187   1      8.8000000000000043      47.519999999999996                   56.32
   188   1      7.0400000000000054      45.759999999999998      59.839999999999996
   189   1      7.0400000000000054      47.519999999999996      61.600000000000001
   190   1      8.8000000000000043      45.759999999999998      61.600000000000001
   191   1      8.8000000000000043      47.519999999999996      59.839999999999996
   192   1      8.8000000000000043      47.519999999999996      63.359999999999999
   193   1      8.8000000000000043      49.279999999999994      33.440000000000005
   194   1      7.0400000000000054      51.039999999999992      36.959999999999994
   195   1      8.8000000000000043      49.279999999999994      36.959999999999994
   196   1      8.8000000000000043      51.039999999999992      35.199999999999996
   197   1      7.0400000000000054      49.279999999999994      38.719999999999999
   198   1      7.0400000000000054      51.039999999999992      40.480000000000004
   199   1      8.8000000000000043      49.279999999999994      40.480000000000004
   200   1      8.8000000000000043      51.039999999999992      38.719999999999999
   201   1      7.0400000000000054      49.279999999999994      42.240000000000002
   202   1      7.0400000000000054      51.039999999999992      43.999999999999993
   203   1      8.8000000000000043      49.279999999999994      43.999999999999993
   204   1      8.8000000000000043      51.039999999999992      42.240000000000002
   205   1      7.0400000000000054      49.279999999999994      45.759999999999998
   206   1      7.0400000000000054      51.039999999999992      47.519999999999996
   207   1      8.8000000000000043      49.279999999999994      47.519999999999996
   208   1      8.8000000000000043      51.039999999999992      45.759999999999998
   209   1      7.0400000000000054      49.279999999999994      49.279999999999994
   210   1      7.0400000000000054      51.039999999999992      51.039999999999992
   211   1      8.8000000000000043      49.279999999999994      51.039999999999992
   212   1      8.8000000000000043      51.039999999999992      49.279999999999994
   213   1      7.0400000000000054      49.279999999999994      52.800000000000004
   214   1      7.0400000000000054      51.039999999999992      54.560000000000002
   215   1      8.8000000000000043      49.279999999999994      54.560000000000002
   216   1      8.8000000000000043      51.039999999999992      52.800000000000004
   217   1      7.0400000000000054      49.279999999999994                   56.32
   218   1      7.0400000000000054      51.039999999999992      58.079999999999998
   219   1      8.8000000000000043      49.279999999999994      58.079999999999998
   220   1      8.8000000000000043      51.039999999999992                   56.32
   221   1      7.0400000000000054      49.279999999999994      59.839999999999996
   222   1      7.0400000000000054      51.039999999999992      61.600000000000001
   223   1      8.8000000000000043      49.279999999999994      61.600000000000001
   224   1      8.8000000000000043      51.039999999999992      59.839999999999996
   225   1      8.8000000000000043      49.279999999999994      65.120000000000005
   226   1      8.8000000000000043      51.039999999999992      63.359999999999999
   227   1      8.8000000000000043      52.800000000000004      36.959999999999994
   228   1      7.0400000000000054      52.800000000000004      38.719999999999999
   229   1      7.0400000000000054      54.560000000000002      40.480000000000004
   230   1      8.8000000000000043      52.800000000000004      40.480000000000004
   231   1      8.8000000000000043      54.560000000000002      38.719999999999999
   232   1      7.0400000000000054      52.800000000000004      42.240000000000002
   233   1      7.0400000000000054      54.560000000000002      43.999999999999993
   234   1      8.8000000000000043      52.800000000000004      43.999999999999993
   235   1      8.8000000000000043      54.560000000000002      42.240000000000002
   236   1      7.0400000000000054      52.800000000000004      45.759999999999998
   237   1      7.0400000000000054      54.560000000000002      47.519999999999996
   238   1      8.8000000000000043      52.800000000000004      47.519999999999996
   239   1      8.8000000000000043      54.560000000000002      45.759999999999998
   240   1      7.0400000000000054      52.800000000000004      49.279999999999994
   241   1      7.0400000000000054      54.560000000000002      51.039999999999992
   242   1      8.8000000000000043      52.800000000000004      51.039999999999992
   243   1      8.8000000000000043      54.560000000000002      49.279999999999994
   244   1      7.0400000000000054      52.800000000000004      52.800000000000004
   245   1      7.0400000000000054      54.560000000000002      54.560000000000002
   246   1      8.8000000000000043      52.800000000000004      54.560000000000002
   247   1      8.8000000000000043      54.560000000000002      52.800000000000004
   248   1      7.0400000000000054      52.800000000000004                   56.32
   249   1      7.0400000000000054      54.560000000000002      58.079999999999998
   250   1      8.8000000000000043      52.800000000000004      58.079999999999998
   251   1      8.8000000000000043      54.560000000000002                   56.32
   252   1      7.0400000000000054      52.800000000000004      59.839999999999996
   253   1      8.8000000000000043      52.800000000000004      61.600000000000001
   254   1      8.8000000000000043      54.560000000000002      59.839999999999996
   255   1      8.8000000000000043                   56.32      36.959999999999994
   256   1      7.0400000000000054      58.079999999999998      40.480000000000004
   257   1      8.8000000000000043                   56.32      40.480000000000004
   258   1      8.8000000000000043      58.079999999999998      38.719999999999999
   259   1      7.0400000000000054                   56.32      42.240000000000002
   260   1      7.0400000000000054      58.079999999999998      43.999999999999993
   261   1      8.8000000000000043                   56.32      43.999999999999993
   262   1      8.8000000000000043      58.079999999999998      42.240000000000002
   263   1      7.0400000000000054                   56.32      45.759999999999998
   264   1      7.0400000000000054      58.079999999999998      47.519999999999996
   265   1      8.8000000000000043                   56.32      47.519999999999996
   266   1      8.8000000000000043      58.079999999999998      45.759999999999998
   267   1      7.0400000000000054                   56.32      49.279999999999994
   268   1      7.0400000000000054      58.079999999999998      51.039999999999992
   269   1      8.8000000000000043                   56.32      51.039999999999992
   270   1      8.8000000000000043      58.079999999999998      49.279999999999994
   271   1      7.0400000000000054                   56.32      52.800000000000004
   272   1      7.0400000000000054      58.079999999999998      54.560000000000002
   273   1      8.8000000000000043                   56.32      54.560000000000002
   274   1      8.8000000000000043      58.079999999999998      52.800000000000004
   275   1      7.0400000000000054                   56.32                   56.32
   276   1      7.0400000000000054      58.079999999999998      58.079999999999998
   277   1      8.8000000000000043                   56.32      58.079999999999998
   278   1      8.8000000000000043      58.079999999999998                   56.32
   279   1      8.8000000000000043                   56.32      61.600000000000001
   280   1      8.8000000000000043      58.079999999999998      59.839999999999996
   281   1      8.8000000000000043      59.839999999999996      40.480000000000004
   282   1      8.8000000000000043      59.839999999999996      43.999999999999993
   283   1      8.8000000000000043      61.600000000000001      42.240000000000002
   284   1      7.0400000000000054      59.839999999999996      45.759999999999998
   285   1      7.0400000000000054      61.600000000000001      47.519999999999996
   286   1      8.8000000000000043      59.839999999999996      47.519999999999996
   287   1      8.8000000000000043      61.600000000000001      45.759999999999998
   288   1      7.0400000000000054      59.839999999999996      49.279999999999994
   289   1      7.0400000000000054      61.600000000000001      51.039999999999992
   290   1      8.8000000000000043      59.839999999999996      51.039999999999992
   291   1      8.8000000000000043      61.600000000000001      49.279999999999994
   292   1      7.0400000000000054      59.839999999999996      52.800000000000004
   293   1      8.8000000000000043      59.839999999999996      54.560000000000002
   294   1      8.8000000000000043      61.600000000000001      52.800000000000004
   295   1      8.8000000000000043      59.839999999999996      58.079999999999998
   296   1      8.8000000000000043      61.600000000000001                   56.32
   297   1      8.8000000000000043      63.359999999999999      47.519999999999996
   298   1      8.8000000000000043      63.359999999999999      51.039999999999992
   299   1      8.8000000000000043      65.120000000000005      49.279999999999994
   300   1      12.320000000000006      29.919999999999998      45.759999999999998
   301   1      12.320000000000006      29.919999999999998      49.279999999999994
   302   1      12.320000000000006      29.919999999999998      52.800000000000004
   303   1      12.320000000000006      33.440000000000005      38.719999999999999
   304   1      10.560000000000002      33.440000000000005      43.999999999999993
   305   1      12.320000000000006      31.680000000000003      43.999999999999993
   306   1      12.320000000000006      33.440000000000005      42.240000000000002
   307   1      10.560000000000002      33.440000000000005      47.519999999999996
   308   1      12.320000000000006      31.680000000000003      47.519999999999996
   309   1      12.320000000000006      33.440000000000005      45.759999999999998
   310   1      10.560000000000002      31.680000000000003      49.279999999999994
   311   1      10.560000000000002      33.440000000000005      51.039999999999992
   312   1      12.320000000000006      31.680000000000003      51.039999999999992
   313   1      12.320000000000006      33.440000000000005      49.279999999999994
   314   1      10.560000000000002      33.440000000000005      54.560000000000002
   315   1      12.320000000000006      31.680000000000003      54.560000000000002
   316   1      12.320000000000006      33.440000000000005      52.800000000000004
   317   1      12.320000000000006      33.440000000000005                   56.32
   318   1      12.320000000000006      33.440000000000005      59.839999999999996
   319   1      10.560000000000002      36.959999999999994      36.959999999999994
   320   1      12.320000000000006      35.199999999999996      36.959999999999994
   321   1      12.320000000000006      36.959999999999994      35.199999999999996
   322   1      10.560000000000002      36.959999999999994      40.480000000000004
   323   1      12.320000000000006      35.199999999999996      40.480000000000004
   324   1      12.320000000000006      36.959999999999994      38.719999999999999
   325   1      10.560000000000002      35.199999999999996      42.240000000000002
   326   1      10.560000000000002      36.959999999999994      43.999999999999993
   327   1      12.320000000000006      35.199999999999996      43.999999999999993
   328   1      12.320000000000006      36.959999999999994      42.240000000000002
   329   1      10.560000000000002      35.199999999999996      45.759999999999998
   330   1      10.560000000000002      36.959999999999994      47.519999999999996
   331   1      12.320000000000006      35.199999999999996      47.519999999999996
   332   1      12.320000000000006      36.959999999999994      45.759999999999998
   333   1      10.560000000000002      35.199999999999996      49.279999999999994
   334   1      10.560000000000002      36.959999999999994      51.039999999999992
   335   1      12.320000000000006      35.199999999999996      51.039999999999992
   336   1      12.320000000000006      36.959999999999994      49.279999999999994
   337   1      10.560000000000002      35.199999999999996      52.800000000000004
   338   1      10.560000000000002      36.959999999999994      54.560000000000002
   339   1      12.320000000000006      35.199999999999996      54.560000000000002
   340   1      12.320000000000006      36.959999999999994      52.800000000000004
   341   1      10.560000000000002      35.199999999999996                   56.32
   342   1      10.560000000000002      36.959999999999994      58.079999999999998
   343   1      12.320000000000006      35.199999999999996      58.079999999999998
   344   1      12.320000000000006      36.959999999999994                   56.32
   345   1      10.560000000000002      36.959999999999994      61.600000000000001
   346   1      12.320000000000006      35.199999999999996      61.600000000000001
   347   1      12.320000000000006      36.959999999999994      59.839999999999996
   348   1      12.320000000000006      36.959999999999994      63.359999999999999
   349   1      12.320000000000006      38.719999999999999      33.440000000000005
   350   1      10.560000000000002      40.480000000000004      36.959999999999994
   351   1      12.320000000000006      38.719999999999999      36.959999999999994
   352   1      12.320000000000006      40.480000000000004      35.199999999999996
   353   1      10.560000000000002      38.719999999999999      38.719999999999999
   354   1      10.560000000000002      40.480000000000004      40.480000000000004
   355   1      12.320000000000006      38.719999999999999      40.480000000000004
   356   1      12.320000000000006      40.480000000000004      38.719999999999999
   357   1      10.560000000000002      38.719999999999999      42.240000000000002
   358   1      10.560000000000002      40.480000000000004      43.999999999999993