model_files/Fe/Fe_30000/Fe_430/data.Fe_430_fcc_30335 (written by ASE) 

30335 	 atoms 
1  atom types
0.0                     100  xlo xhi
0.0                     100  ylo yhi
0.0                     100  zlo zhi


Atoms 

     1   1                       0      48.789999999999992      48.789999999999992
     2   1                       0      48.789999999999992      51.659999999999997
     3   1                       0      51.659999999999997      48.789999999999992
     4   1                       0      51.659999999999997      51.659999999999997
     5   1      2.8699999999999974      45.919999999999995      45.919999999999995
     6   1      2.8699999999999974      45.919999999999995      48.789999999999992
     7   1      2.8699999999999974      45.919999999999995      51.659999999999997
     8   1      2.8699999999999974      45.919999999999995      54.530000000000001
     9   1      2.8699999999999974      48.789999999999992      45.919999999999995
    10   1      1.4349999999999952       47.35499999999999       47.35499999999999
    11   1      2.8699999999999974      48.789999999999992      48.789999999999992
    12   1      1.4349999999999952       47.35499999999999      50.224999999999994
    13   1      2.8699999999999974      48.789999999999992      51.659999999999997
    14   1      1.4349999999999952       47.35499999999999      53.094999999999992
    15   1      2.8699999999999974      48.789999999999992      54.530000000000001
    16   1      2.8699999999999974      51.659999999999997      45.919999999999995
    17   1      1.4349999999999952      50.224999999999994       47.35499999999999
    18   1      2.8699999999999974      51.659999999999997      48.789999999999992
    19   1      1.4349999999999952      50.224999999999994      50.224999999999994
    20   1      2.8699999999999974      51.659999999999997      51.659999999999997
    21   1      1.4349999999999952      50.224999999999994      53.094999999999992
    22   1      2.8699999999999974      51.659999999999997      54.530000000000001
    23   1      2.8699999999999974      54.530000000000001      45.919999999999995
    24   1      1.4349999999999952      53.094999999999992       47.35499999999999
    25   1      2.8699999999999974      54.530000000000001      48.789999999999992
    26   1      1.4349999999999952      53.094999999999992      50.224999999999994
    27   1      2.8699999999999974      54.530000000000001      51.659999999999997
    28   1      1.4349999999999952      53.094999999999992      53.094999999999992
    29   1      2.8699999999999974      54.530000000000001      54.530000000000001
    30   1      5.7399999999999949      43.049999999999997      43.049999999999997
    31   1      5.7399999999999949      43.049999999999997      45.919999999999995
    32   1      5.7399999999999949      43.049999999999997      48.789999999999992
    33   1      5.7399999999999949      43.049999999999997      51.659999999999997
    34   1      5.7399999999999949      43.049999999999997      54.530000000000001
    35   1      5.7399999999999949      43.049999999999997      57.399999999999999
    36   1      5.7399999999999949      45.919999999999995      43.049999999999997
    37   1      4.3049999999999997      44.484999999999992      44.484999999999992
    38   1      5.7399999999999949      45.919999999999995      45.919999999999995
    39   1      4.3049999999999997      44.484999999999992       47.35499999999999
    40   1      5.7399999999999949      45.919999999999995      48.789999999999992
    41   1      4.3049999999999997      44.484999999999992      50.224999999999994
    42   1      5.7399999999999949      45.919999999999995      51.659999999999997
    43   1      4.3049999999999997      44.484999999999992      53.094999999999992
    44   1      5.7399999999999949      45.919999999999995      54.530000000000001
    45   1      4.3049999999999997      44.484999999999992      55.964999999999989
    46   1      5.7399999999999949      45.919999999999995      57.399999999999999
    47   1      5.7399999999999949      48.789999999999992      43.049999999999997
    48   1      4.3049999999999997       47.35499999999999      44.484999999999992
    49   1      5.7399999999999949      48.789999999999992      45.919999999999995
    50   1      4.3049999999999997       47.35499999999999       47.35499999999999
    51   1      5.7399999999999949      48.789999999999992      48.789999999999992
    52   1      4.3049999999999997       47.35499999999999      50.224999999999994
    53   1      5.7399999999999949      48.789999999999992      51.659999999999997
    54   1      4.3049999999999997       47.35499999999999      53.094999999999992
    55   1      5.7399999999999949      48.789999999999992      54.530000000000001
    56   1      4.3049999999999997       47.35499999999999      55.964999999999989
    57   1      5.7399999999999949      48.789999999999992      57.399999999999999
    58   1      5.7399999999999949      51.659999999999997      43.049999999999997
    59   1      4.3049999999999997      50.224999999999994      44.484999999999992
    60   1      5.7399999999999949      51.659999999999997      45.919999999999995
    61   1      4.3049999999999997      50.224999999999994       47.35499999999999
    62   1      5.7399999999999949      51.659999999999997      48.789999999999992
    63   1      4.3049999999999997      50.224999999999994      50.224999999999994
    64   1      5.7399999999999949      51.659999999999997      51.659999999999997
    65   1      4.3049999999999997      50.224999999999994      53.094999999999992
    66   1      5.7399999999999949      51.659999999999997      54.530000000000001
    67   1      4.3049999999999997      50.224999999999994      55.964999999999989
    68   1      5.7399999999999949      51.659999999999997      57.399999999999999
    69   1      5.7399999999999949      54.530000000000001      43.049999999999997
    70   1      4.3049999999999997      53.094999999999992      44.484999999999992
    71   1      5.7399999999999949      54.530000000000001      45.919999999999995
    72   1      4.3049999999999997      53.094999999999992       47.35499999999999
    73   1      5.7399999999999949      54.530000000000001      48.789999999999992
    74   1      4.3049999999999997      53.094999999999992      50.224999999999994
    75   1      5.7399999999999949      54.530000000000001      51.659999999999997
    76   1      4.3049999999999997      53.094999999999992      53.094999999999992
    77   1      5.7399999999999949      54.530000000000001      54.530000000000001
    78   1      4.3049999999999997      53.094999999999992      55.964999999999989
    79   1      5.7399999999999949      54.530000000000001      57.399999999999999
    80   1      5.7399999999999949      57.399999999999999      43.049999999999997
    81   1      4.3049999999999997      55.964999999999989      44.484999999999992
    82   1      5.7399999999999949      57.399999999999999      45.919999999999995
    83   1      4.3049999999999997      55.964999999999989       47.35499999999999
    84   1      5.7399999999999949      57.399999999999999      48.789999999999992
    85   1      4.3049999999999997      55.964999999999989      50.224999999999994
    86   1      5.7399999999999949      57.399999999999999      51.659999999999997
    87   1      4.3049999999999997      55.964999999999989      53.094999999999992
    88   1      5.7399999999999949      57.399999999999999      54.530000000000001
    89   1      4.3049999999999997      55.964999999999989      55.964999999999989
    90   1      5.7399999999999949      57.399999999999999      57.399999999999999
    91   1      8.6099999999999994      37.309999999999995      37.309999999999995
    92   1      8.6099999999999994      37.309999999999995      40.179999999999993
    93   1      8.6099999999999994      37.309999999999995      43.049999999999997
    94   1      8.6099999999999994      37.309999999999995      45.919999999999995
    95   1      8.6099999999999994      37.309999999999995      48.789999999999992
    96   1      8.6099999999999994      37.309999999999995      51.659999999999997
    97   1      8.6099999999999994      37.309999999999995      54.530000000000001
    98   1      8.6099999999999994      37.309999999999995      57.399999999999999
    99   1      8.6099999999999994      37.309999999999995      60.270000000000003
   100   1      8.6099999999999994      37.309999999999995      63.139999999999986
   101   1      8.6099999999999994      40.179999999999993      37.309999999999995
   102   1      8.6099999999999994      40.179999999999993      40.179999999999993
   103   1      8.6099999999999994      40.179999999999993      43.049999999999997
   104   1      8.6099999999999994      40.179999999999993      45.919999999999995
   105   1      8.6099999999999994      40.179999999999993      48.789999999999992
   106   1      8.6099999999999994      40.179999999999993      51.659999999999997
   107   1      8.6099999999999994      40.179999999999993      54.530000000000001
   108   1      8.6099999999999994      40.179999999999993      57.399999999999999
   109   1      8.6099999999999994      40.179999999999993      60.270000000000003
   110   1      8.6099999999999994      40.179999999999993      63.139999999999986
   111   1      8.6099999999999994      43.049999999999997      37.309999999999995
   112   1      8.6099999999999994      43.049999999999997      40.179999999999993
   113   1      7.1749999999999963      41.614999999999995      41.614999999999995
   114   1      8.6099999999999994      43.049999999999997      43.049999999999997
   115   1      7.1749999999999963      41.614999999999995      44.484999999999992
   116   1      8.6099999999999994      43.049999999999997      45.919999999999995
   117   1      7.1749999999999963      41.614999999999995       47.35499999999999
   118   1      8.6099999999999994      43.049999999999997      48.789999999999992
   119   1      7.1749999999999963      41.614999999999995      50.224999999999994
   120   1      8.6099999999999994      43.049999999999997      51.659999999999997
   121   1      7.1749999999999963      41.614999999999995      53.094999999999992
   122   1      8.6099999999999994      43.049999999999997      54.530000000000001
   123   1      7.1749999999999963      41.614999999999995      55.964999999999989
   124   1      8.6099999999999994      43.049999999999997      57.399999999999999
   125   1      7.1749999999999963      41.614999999999995      58.834999999999994
   126   1      8.6099999999999994      43.049999999999997      60.270000000000003
   127   1      8.6099999999999994      43.049999999999997      63.139999999999986
   128   1      8.6099999999999994      45.919999999999995      37.309999999999995
   129   1      8.6099999999999994      45.919999999999995      40.179999999999993
   130   1      7.1749999999999963      44.484999999999992      41.614999999999995
   131   1      8.6099999999999994      45.919999999999995      43.049999999999997
   132   1      7.1749999999999963      44.484999999999992      44.484999999999992
   133   1      8.6099999999999994      45.919999999999995      45.919999999999995
   134   1      7.1749999999999963      44.484999999999992       47.35499999999999
   135   1      8.6099999999999994      45.919999999999995      48.789999999999992
   136   1      7.1749999999999963      44.484999999999992      50.224999999999994
   137   1      8.6099999999999994      45.919999999999995      51.659999999999997
   138   1      7.1749999999999963      44.484999999999992      53.094999999999992
   139   1      8.6099999999999994      45.919999999999995      54.530000000000001
   140   1      7.1749999999999963      44.484999999999992      55.964999999999989
   141   1      8.6099999999999994      45.919999999999995      57.399999999999999
   142   1      7.1749999999999963      44.484999999999992      58.834999999999994
   143   1      8.6099999999999994      45.919999999999995      60.270000000000003
   144   1      8.6099999999999994      45.919999999999995      63.139999999999986
   145   1      8.6099999999999994      48.789999999999992      37.309999999999995
   146   1      8.6099999999999994      48.789999999999992      40.179999999999993
   147   1      7.1749999999999963       47.35499999999999      41.614999999999995
   148   1      8.6099999999999994      48.789999999999992      43.049999999999997
   149   1      7.1749999999999963       47.35499999999999      44.484999999999992
   150   1      8.6099999999999994      48.789999999999992      45.919999999999995
   151   1      7.1749999999999963       47.35499999999999       47.35499999999999
   152   1      8.6099999999999994      48.789999999999992      48.789999999999992
   153   1      7.1749999999999963       47.35499999999999      50.224999999999994
   154   1      8.6099999999999994      48.789999999999992      51.659999999999997
   155   1      7.1749999999999963       47.35499999999999      53.094999999999992
   156   1      8.6099999999999994      48.789999999999992      54.530000000000001
   157   1      7.1749999999999963       47.35499999999999      55.964999999999989
   158   1      8.6099999999999994      48.789999999999992      57.399999999999999
   159   1      7.1749999999999963       47.35499999999999      58.834999999999994
   160   1      8.6099999999999994      48.789999999999992      60.270000000000003
   161   1      8.6099999999999994      48.789999999999992      63.139999999999986
   162   1      8.6099999999999994      51.659999999999997      37.309999999999995
   163   1      8.6099999999999994      51.659999999999997      40.179999999999993
   164   1      7.1749999999999963      50.224999999999994      41.614999999999995
   165   1      8.6099999999999994      51.659999999999997      43.049999999999997
   166   1      7.1749999999999963      50.224999999999994      44.484999999999992
   167   1      8.6099999999999994      51.659999999999997      45.919999999999995
   168   1      7.1749999999999963      50.224999999999994       47.35499999999999
   169   1      8.6099999999999994      51.659999999999997      48.789999999999992
   170   1      7.1749999999999963      50.224999999999994      50.224999999999994
   171   1      8.6099999999999994      51.659999999999997      51.659999999999997
   172   1      7.1749999999999963      50.224999999999994      53.094999999999992
   173   1      8.6099999999999994      51.659999999999997      54.530000000000001
   174   1      7.1749999999999963      50.224999999999994      55.964999999999989
   175   1      8.6099999999999994      51.659999999999997      57.399999999999999
   176   1      7.1749999999999963      50.224999999999994      58.834999999999994
   177   1      8.6099999999999994      51.659999999999997      60.270000000000003
   178   1      8.6099999999999994      51.659999999999997      63.139999999999986
   179   1      8.6099999999999994      54.530000000000001      37.309999999999995
   180   1      8.6099999999999994      54.530000000000001      40.179999999999993
   181   1      7.1749999999999963      53.094999999999992      41.614999999999995
   182   1      8.6099999999999994      54.530000000000001      43.049999999999997
   183   1      7.1749999999999963      53.094999999999992      44.484999999999992
   184   1      8.6099999999999994      54.530000000000001      45.919999999999995
   185   1      7.1749999999999963      53.094999999999992       47.35499999999999
   186   1      8.6099999999999994      54.530000000000001      48.789999999999992
   187   1      7.1749999999999963      53.094999999999992      50.224999999999994
   188   1      8.6099999999999994      54.530000000000001      51.659999999999997
   189   1      7.1749999999999963      53.094999999999992      53.094999999999992
   190   1      8.6099999999999994      54.530000000000001      54.530000000000001
   191   1      7.1749999999999963      53.094999999999992      55.964999999999989
   192   1      8.6099999999999994      54.530000000000001      57.399999999999999
   193   1      7.1749999999999963      53.094999999999992      58.834999999999994
   194   1      8.6099999999999994      54.530000000000001      60.270000000000003
   195   1      8.6099999999999994      54.530000000000001      63.139999999999986
   196   1      8.6099999999999994      57.399999999999999      37.309999999999995
   197   1      8.6099999999999994      57.399999999999999      40.179999999999993
   198   1      7.1749999999999963      55.964999999999989      41.614999999999995
   199   1      8.6099999999999994      57.399999999999999      43.049999999999997
   200   1      7.1749999999999963      55.964999999999989      44.484999999999992
   201   1      8.6099999999999994      57.399999999999999      45.919999999999995
   202   1      7.1749999999999963      55.964999999999989       47.35499999999999
   203   1      8.6099999999999994      57.399999999999999      48.789999999999992
   204   1      7.1749999999999963      55.964999999999989      50.224999999999994
   205   1      8.6099999999999994      57.399999999999999      51.659999999999997
   206   1      7.1749999999999963      55.964999999999989      53.094999999999992
   207   1      8.6099999999999994      57.399999999999999      54.530000000000001
   208   1      7.1749999999999963      55.964999999999989      55.964999999999989
   209   1      8.6099999999999994      57.399999999999999      57.399999999999999
   210   1      7.1749999999999963      55.964999999999989      58.834999999999994
   211   1      8.6099999999999994      57.399999999999999      60.270000000000003
   212   1      8.6099999999999994      57.399999999999999      63.139999999999986
   213   1      8.6099999999999994      60.270000000000003      37.309999999999995
   214   1      8.6099999999999994      60.270000000000003      40.179999999999993
   215   1      7.1749999999999963      58.834999999999994      41.614999999999995
   216   1      8.6099999999999994      60.270000000000003      43.049999999999997
   217   1      7.1749999999999963      58.834999999999994      44.484999999999992
   218   1      8.6099999999999994      60.270000000000003      45.919999999999995
   219   1      7.1749999999999963      58.834999999999994       47.35499999999999
   220   1      8.6099999999999994      60.270000000000003      48.789999999999992
   221   1      7.1749999999999963      58.834999999999994      50.224999999999994
   222   1      8.6099999999999994      60.270000000000003      51.659999999999997
   223   1      7.1749999999999963      58.834999999999994      53.094999999999992
   224   1      8.6099999999999994      60.270000000000003      54.530000000000001
   225   1      7.1749999999999963      58.834999999999994      55.964999999999989
   226   1      8.6099999999999994      60.270000000000003      57.399999999999999
   227   1      7.1749999999999963      58.834999999999994      58.834999999999994
   228   1      8.6099999999999994      60.270000000000003      60.270000000000003
   229   1      8.6099999999999994      60.270000000000003      63.139999999999986
   230   1      8.6099999999999994      63.139999999999986      37.309999999999995
   231   1      8.6099999999999994      63.139999999999986      40.179999999999993
   232   1      8.6099999999999994      63.139999999999986      43.049999999999997
   233   1      8.6099999999999994      63.139999999999986      45.919999999999995
   234   1      8.6099999999999994      63.139999999999986      48.789999999999992
   235   1      8.6099999999999994      63.139999999999986      51.659999999999997
   236   1      8.6099999999999994      63.139999999999986      54.530000000000001
   237   1      8.6099999999999994      63.139999999999986      57.399999999999999
   238   1      8.6099999999999994      63.139999999999986      60.270000000000003
   239   1      8.6099999999999994      63.139999999999986      63.139999999999986
   240   1      11.479999999999997      34.439999999999998      34.439999999999998
   241   1      11.479999999999997      34.439999999999998      37.309999999999995
   242   1      11.479999999999997      34.439999999999998      40.179999999999993
   243   1      11.479999999999997      34.439999999999998      43.049999999999997
   244   1      11.479999999999997      34.439999999999998      45.919999999999995
   245   1      11.479999999999997      34.439999999999998      48.789999999999992
   246   1      11.479999999999997      34.439999999999998      51.659999999999997
   247   1      11.479999999999997      34.439999999999998      54.530000000000001
   248   1      11.479999999999997      34.439999999999998      57.399999999999999
   249   1      11.479999999999997      34.439999999999998      60.270000000000003
   250   1      11.479999999999997      34.439999999999998      63.139999999999986
   251   1      11.479999999999997      34.439999999999998      66.009999999999991
   252   1      11.479999999999997      37.309999999999995      34.439999999999998
   253   1      10.044999999999995      35.874999999999993      35.874999999999993
   254   1      11.479999999999997      37.309999999999995      37.309999999999995
   255   1      10.044999999999995      35.874999999999993       38.74499999999999
   256   1      11.479999999999997      37.309999999999995      40.179999999999993
   257   1      10.044999999999995      35.874999999999993      41.614999999999995
   258   1      11.479999999999997      37.309999999999995      43.049999999999997
   259   1      10.044999999999995      35.874999999999993      44.484999999999992
   260   1      11.479999999999997      37.309999999999995      45.919999999999995
   261   1      10.044999999999995      35.874999999999993       47.35499999999999
   262   1      11.479999999999997      37.309999999999995      48.789999999999992
   263   1      10.044999999999995      35.874999999999993      50.224999999999994
   264   1      11.479999999999997      37.309999999999995      51.659999999999997
   265   1      10.044999999999995      35.874999999999993      53.094999999999992
   266   1      11.479999999999997      37.309999999999995      54.530000000000001
   267   1      10.044999999999995      35.874999999999993      55.964999999999989
   268   1      11.479999999999997      37.309999999999995      57.399999999999999
   269   1      10.044999999999995      35.874999999999993      58.834999999999994
   270   1      11.479999999999997      37.309999999999995      60.270000000000003
   271   1      10.044999999999995      35.874999999999993      61.704999999999984
   272   1      11.479999999999997      37.309999999999995      63.139999999999986
   273   1      10.044999999999995      35.874999999999993      64.574999999999989
   274   1      11.479999999999997      37.309999999999995      66.009999999999991
   275   1      11.479999999999997      40.179999999999993      34.439999999999998
   276   1      10.044999999999995       38.74499999999999      35.874999999999993
   277   1      11.479999999999997      40.179999999999993      37.309999999999995
   278   1      10.044999999999995       38.74499999999999       38.74499999999999
   279   1      11.479999999999997      40.179999999999993      40.179999999999993
   280   1      10.044999999999995       38.74499999999999      41.614999999999995
   281   1      11.479999999999997      40.179999999999993      43.049999999999997
   282   1      10.044999999999995       38.74499999999999      44.484999999999992
   283   1      11.479999999999997      40.179999999999993      45.919999999999995
   284   1      10.044999999999995       38.74499999999999       47.35499999999999
   285   1      11.479999999999997      40.179999999999993      48.789999999999992
   286   1      10.044999999999995       38.74499999999999      50.224999999999994
   287   1      11.479999999999997      40.179999999999993      51.659999999999997
   288   1      10.044999999999995       38.74499999999999      53.094999999999992
   289   1      11.479999999999997      40.179999999999993      54.530000000000001
   290   1      10.044999999999995       38.74499999999999      55.964999999999989
   291   1      11.479999999999997      40.179999999999993      57.399999999999999
   292   1      10.044999999999995       38.74499999999999      58.834999999999994
   293   1      11.479999999999997      40.179999999999993      60.270000000000003
   294   1      10.044999999999995       38.74499999999999      61.704999999999984
   295   1      11.479999999999997      40.179999999999993      63.139999999999986
   296   1      10.044999999999995       38.74499999999999      64.574999999999989
   297   1      11.479999999999997      40.179999999999993      66.009999999999991
   298   1      11.479999999999997      43.049999999999997      34.439999999999998
   299   1      10.044999999999995      41.614999999999995      35.874999999999993
   300   1      11.479999999999997      43.049999999999997      37.309999999999995
   301   1      10.044999999999995      41.614999999999995       38.74499999999999
   302   1      11.479999999999997      43.049999999999997      40.179999999999993
   303   1      10.044999999999995      41.614999999999995      41.614999999999995
   304   1      11.479999999999997      43.049999999999997      43.049999999999997
   305   1      10.044999999999995      41.614999999999995      44.484999999999992
   306   1      11.479999999999997      43.049999999999997      45.919999999999995
   307   1      10.044999999999995      41.614999999999995       47.35499999999999
   308   1      11.479999999999997      43.049999999999997      48.789999999999992
   309   1      10.044999999999995      41.614999999999995      50.224999999999994
   310   1      11.479999999999997      43.049999999999997      51.659999999999997
   311   1      10.044999999999995      41.614999999999995      53.094999999999992
   312   1      11.479999999999997      43.049999999999997      54.530000000000001
   313   1      10.044999999999995      41.614999999999995      55.964999999999989
   314   1      11.479999999999997      43.049999999999997      57.399999999999999
   315   1      10.044999999999995      41.614999999999995      58.834999999999994
   316   1      11.479999999999997      43.049999999999997      60.270000000000003
   317   1      10.044999999999995      41.614999999999995      61.704999999999984
   318   1      11.479999999999997      43.049999999999997      63.139999999999986
   319   1      10.044999999999995      41.614999999999995      64.574999999999989
   320   1      11.479999999999997      43.049999999999997      66.009999999999991
   321   1      11.479999999999997      45.919999999999995      34.439999999999998
   322   1      10.044999999999995      44.484999999999992      35.874999999999993
   323   1      11.479999999999997      45.919999999999995      37.309999999999995
   324   1      10.044999999999995      44.484999999999992       38.74499999999999
   325   1      11.479999999999997      45.919999999999995      40.179999999999993
   326   1      10.044999999999995      44.484999999999992      41.614999999999995
   327   1      11.479999999999997      45.919999999999995      43.049999999999997
   328   1      10.044999999999995      44.484999999999992      44.484999999999992
   329   1      11.479999999999997      45.919999999999995      45.919999999999995
   330   1      10.044999999999995      44.484999999999992       47.35499999999999
   331   1      11.479999999999997      45.919999999999995      48.789999999999992
   332   1      10.044999999999995      44.484999999999992      50.224999999999994
   333   1      11.479999999999997      45.919999999999995      51.659999999999997
   334   1      10.044999999999995      44.484999999999992      53.094999999999992
   335   1      11.479999999999997      45.919999999999995      54.530000000000001
   336   1      10.044999999999995      44.484999999999992      55.964999999999989
   337   1      11.479999999999997      45.919999999999995      57.399999999999999
   338   1      10.044999999999995      44.484999999999992      58.834999999999994
   339   1      11.479999999999997      45.919999999999995      60.270000000000003
   340   1      10.044999999999995      44.484999999999992      61.704999999999984
   341   1      11.479999999999997      45.919999999999995      63.139999999999986
   342   1      10.044999999999995      44.484999999999992      64.574999999999989
   343   1      11.479999999999997      45.919999999999995      66.009999999999991
   344   1      11.479999999999997      48.789999999999992      34.439999999999998
   345   1      10.044999999999995       47.35499999999999      35.874999999999993
   346   1      11.479999999999997      48.789999999999992      37.309999999999995
   347   1      10.044999999999995       47.35499999999999       38.74499999999999
   348   1      11.479999999999997      48.789999999999992      40.179999999999993
   349   1      10.044999999999995       47.35499999999999      41.614999999999995
   350   1      11.479999999999997      48.789999999999992      43.049999999999997
   351   1      10.044999999999995       47.35499999999999      44.484999999999992
   352   1      11.479999999999997      48.789999999999992      45.919999999999995
   353   1      10.044999999999995       47.35499999999999       47.35499999999999
   354   1      11.479999999999997      48.789999999999992      48.789999999999992
   355   1      10.044999999999995       47.35499999999999      50.224999999999994
   356   1      11.479999999999997      48.789999999999992      51.659999999999997
   357   1      10.044999999999995       47.35499999999999      53.094999999999992
   358   1      11.479999999999997      48.789999999999992      54.530000000000001