model_files/Ni/Ni_30000/Ni_320/data.Ni_320_fcc_29879 (written by ASE) 

29879 	 atoms 
1  atom types
0.0                      93  xlo xhi
0.0                      93  ylo yhi
0.0                      93  zlo zhi


Atoms 

     1   1      1.7600000000000051      40.480000000000011      42.240000000000009
     2   1      1.7600000000000051      40.480000000000011      45.760000000000005
     3   1      1.7600000000000051      40.480000000000011      49.280000000000001
     4   1      1.7600000000000051      42.240000000000009      40.480000000000011
     5   1  7.1054273576010019e-15      42.240000000000009      42.240000000000009
     6   1  7.1054273576010019e-15                      44                      44
     7   1      1.7600000000000051      42.240000000000009                      44
     8   1      1.7600000000000051                      44      42.240000000000009
     9   1  7.1054273576010019e-15      42.240000000000009      45.760000000000005
    10   1  7.1054273576010019e-15                      44       47.52000000000001
    11   1      1.7600000000000051      42.240000000000009       47.52000000000001
    12   1      1.7600000000000051                      44      45.760000000000005
    13   1  7.1054273576010019e-15      42.240000000000009      49.280000000000001
    14   1      1.7600000000000051      42.240000000000009      51.039999999999999
    15   1      1.7600000000000051                      44      49.280000000000001
    16   1      1.7600000000000051      45.760000000000005      40.480000000000011
    17   1  7.1054273576010019e-15      45.760000000000005      42.240000000000009
    18   1  7.1054273576010019e-15       47.52000000000001                      44
    19   1      1.7600000000000051      45.760000000000005                      44
    20   1      1.7600000000000051       47.52000000000001      42.240000000000009
    21   1  7.1054273576010019e-15      45.760000000000005      45.760000000000005
    22   1  7.1054273576010019e-15       47.52000000000001       47.52000000000001
    23   1      1.7600000000000051      45.760000000000005       47.52000000000001
    24   1      1.7600000000000051       47.52000000000001      45.760000000000005
    25   1  7.1054273576010019e-15      45.760000000000005      49.280000000000001
    26   1      1.7600000000000051      45.760000000000005      51.039999999999999
    27   1      1.7600000000000051       47.52000000000001      49.280000000000001
    28   1      1.7600000000000051      49.280000000000001      40.480000000000011
    29   1  7.1054273576010019e-15      49.280000000000001      42.240000000000009
    30   1      1.7600000000000051      49.280000000000001                      44
    31   1      1.7600000000000051      51.039999999999999      42.240000000000009
    32   1  7.1054273576010019e-15      49.280000000000001      45.760000000000005
    33   1      1.7600000000000051      49.280000000000001       47.52000000000001
    34   1      1.7600000000000051      51.039999999999999      45.760000000000005
    35   1  7.1054273576010019e-15      49.280000000000001      49.280000000000001
    36   1      1.7600000000000051      49.280000000000001      51.039999999999999
    37   1      1.7600000000000051      51.039999999999999      49.280000000000001
    38   1      3.5200000000000031      36.960000000000001      36.960000000000001
    39   1       5.280000000000002      35.200000000000003      36.960000000000001
    40   1       5.280000000000002      36.960000000000001      35.200000000000003
    41   1      3.5200000000000031      36.960000000000001      40.480000000000011
    42   1       5.280000000000002      35.200000000000003      40.480000000000011
    43   1       5.280000000000002      36.960000000000001      38.720000000000006
    44   1      3.5200000000000031      36.960000000000001                      44
    45   1       5.280000000000002      35.200000000000003                      44
    46   1       5.280000000000002      36.960000000000001      42.240000000000009
    47   1      3.5200000000000031      36.960000000000001       47.52000000000001
    48   1       5.280000000000002      35.200000000000003       47.52000000000001
    49   1       5.280000000000002      36.960000000000001      45.760000000000005
    50   1      3.5200000000000031      36.960000000000001      51.039999999999999
    51   1       5.280000000000002      35.200000000000003      51.039999999999999
    52   1       5.280000000000002      36.960000000000001      49.280000000000001
    53   1      3.5200000000000031      36.960000000000001      54.560000000000009
    54   1       5.280000000000002      35.200000000000003      54.560000000000009
    55   1       5.280000000000002      36.960000000000001      52.800000000000011
    56   1       5.280000000000002      36.960000000000001      56.320000000000007
    57   1      3.5200000000000031      40.480000000000011      36.960000000000001
    58   1       5.280000000000002      38.720000000000006      36.960000000000001
    59   1       5.280000000000002      40.480000000000011      35.200000000000003
    60   1      3.5200000000000031      38.720000000000006      38.720000000000006
    61   1      3.5200000000000031      40.480000000000011      40.480000000000011
    62   1       5.280000000000002      38.720000000000006      40.480000000000011
    63   1       5.280000000000002      40.480000000000011      38.720000000000006
    64   1      3.5200000000000031      38.720000000000006      42.240000000000009
    65   1      3.5200000000000031      40.480000000000011                      44
    66   1       5.280000000000002      38.720000000000006                      44
    67   1       5.280000000000002      40.480000000000011      42.240000000000009
    68   1      3.5200000000000031      38.720000000000006      45.760000000000005
    69   1      3.5200000000000031      40.480000000000011       47.52000000000001
    70   1       5.280000000000002      38.720000000000006       47.52000000000001
    71   1       5.280000000000002      40.480000000000011      45.760000000000005
    72   1      3.5200000000000031      38.720000000000006      49.280000000000001
    73   1      3.5200000000000031      40.480000000000011      51.039999999999999
    74   1       5.280000000000002      38.720000000000006      51.039999999999999
    75   1       5.280000000000002      40.480000000000011      49.280000000000001
    76   1      3.5200000000000031      38.720000000000006      52.800000000000011
    77   1      3.5200000000000031      40.480000000000011      54.560000000000009
    78   1       5.280000000000002      38.720000000000006      54.560000000000009
    79   1       5.280000000000002      40.480000000000011      52.800000000000011
    80   1       5.280000000000002      40.480000000000011      56.320000000000007
    81   1      3.5200000000000031                      44      36.960000000000001
    82   1       5.280000000000002      42.240000000000009      36.960000000000001
    83   1       5.280000000000002                      44      35.200000000000003
    84   1      3.5200000000000031      42.240000000000009      38.720000000000006
    85   1      3.5200000000000031                      44      40.480000000000011
    86   1       5.280000000000002      42.240000000000009      40.480000000000011
    87   1       5.280000000000002                      44      38.720000000000006
    88   1      3.5200000000000031      42.240000000000009      42.240000000000009
    89   1      3.5200000000000031                      44                      44
    90   1       5.280000000000002      42.240000000000009                      44
    91   1       5.280000000000002                      44      42.240000000000009
    92   1      3.5200000000000031      42.240000000000009      45.760000000000005
    93   1      3.5200000000000031                      44       47.52000000000001
    94   1       5.280000000000002      42.240000000000009       47.52000000000001
    95   1       5.280000000000002                      44      45.760000000000005
    96   1      3.5200000000000031      42.240000000000009      49.280000000000001
    97   1      3.5200000000000031                      44      51.039999999999999
    98   1       5.280000000000002      42.240000000000009      51.039999999999999
    99   1       5.280000000000002                      44      49.280000000000001
   100   1      3.5200000000000031      42.240000000000009      52.800000000000011
   101   1      3.5200000000000031                      44      54.560000000000009
   102   1       5.280000000000002      42.240000000000009      54.560000000000009
   103   1       5.280000000000002                      44      52.800000000000011
   104   1       5.280000000000002                      44      56.320000000000007
   105   1      3.5200000000000031       47.52000000000001      36.960000000000001
   106   1       5.280000000000002      45.760000000000005      36.960000000000001
   107   1       5.280000000000002       47.52000000000001      35.200000000000003
   108   1      3.5200000000000031      45.760000000000005      38.720000000000006
   109   1      3.5200000000000031       47.52000000000001      40.480000000000011
   110   1       5.280000000000002      45.760000000000005      40.480000000000011
   111   1       5.280000000000002       47.52000000000001      38.720000000000006
   112   1      3.5200000000000031      45.760000000000005      42.240000000000009
   113   1      3.5200000000000031       47.52000000000001                      44
   114   1       5.280000000000002      45.760000000000005                      44
   115   1       5.280000000000002       47.52000000000001      42.240000000000009
   116   1      3.5200000000000031      45.760000000000005      45.760000000000005
   117   1      3.5200000000000031       47.52000000000001       47.52000000000001
   118   1       5.280000000000002      45.760000000000005       47.52000000000001
   119   1       5.280000000000002       47.52000000000001      45.760000000000005
   120   1      3.5200000000000031      45.760000000000005      49.280000000000001
   121   1      3.5200000000000031       47.52000000000001      51.039999999999999
   122   1       5.280000000000002      45.760000000000005      51.039999999999999
   123   1       5.280000000000002       47.52000000000001      49.280000000000001
   124   1      3.5200000000000031      45.760000000000005      52.800000000000011
   125   1      3.5200000000000031       47.52000000000001      54.560000000000009
   126   1       5.280000000000002      45.760000000000005      54.560000000000009
   127   1       5.280000000000002       47.52000000000001      52.800000000000011
   128   1       5.280000000000002       47.52000000000001      56.320000000000007
   129   1      3.5200000000000031      51.039999999999999      36.960000000000001
   130   1       5.280000000000002      49.280000000000001      36.960000000000001
   131   1       5.280000000000002      51.039999999999999      35.200000000000003
   132   1      3.5200000000000031      49.280000000000001      38.720000000000006
   133   1      3.5200000000000031      51.039999999999999      40.480000000000011
   134   1       5.280000000000002      49.280000000000001      40.480000000000011
   135   1       5.280000000000002      51.039999999999999      38.720000000000006
   136   1      3.5200000000000031      49.280000000000001      42.240000000000009
   137   1      3.5200000000000031      51.039999999999999                      44
   138   1       5.280000000000002      49.280000000000001                      44
   139   1       5.280000000000002      51.039999999999999      42.240000000000009
   140   1      3.5200000000000031      49.280000000000001      45.760000000000005
   141   1      3.5200000000000031      51.039999999999999       47.52000000000001
   142   1       5.280000000000002      49.280000000000001       47.52000000000001
   143   1       5.280000000000002      51.039999999999999      45.760000000000005
   144   1      3.5200000000000031      49.280000000000001      49.280000000000001
   145   1      3.5200000000000031      51.039999999999999      51.039999999999999
   146   1       5.280000000000002      49.280000000000001      51.039999999999999
   147   1       5.280000000000002      51.039999999999999      49.280000000000001
   148   1      3.5200000000000031      49.280000000000001      52.800000000000011
   149   1      3.5200000000000031      51.039999999999999      54.560000000000009
   150   1       5.280000000000002      49.280000000000001      54.560000000000009
   151   1       5.280000000000002      51.039999999999999      52.800000000000011
   152   1       5.280000000000002      51.039999999999999      56.320000000000007
   153   1      3.5200000000000031      54.560000000000009      36.960000000000001
   154   1       5.280000000000002      52.800000000000011      36.960000000000001
   155   1       5.280000000000002      54.560000000000009      35.200000000000003
   156   1      3.5200000000000031      52.800000000000011      38.720000000000006
   157   1      3.5200000000000031      54.560000000000009      40.480000000000011
   158   1       5.280000000000002      52.800000000000011      40.480000000000011
   159   1       5.280000000000002      54.560000000000009      38.720000000000006
   160   1      3.5200000000000031      52.800000000000011      42.240000000000009
   161   1      3.5200000000000031      54.560000000000009                      44
   162   1       5.280000000000002      52.800000000000011                      44
   163   1       5.280000000000002      54.560000000000009      42.240000000000009
   164   1      3.5200000000000031      52.800000000000011      45.760000000000005
   165   1      3.5200000000000031      54.560000000000009       47.52000000000001
   166   1       5.280000000000002      52.800000000000011       47.52000000000001
   167   1       5.280000000000002      54.560000000000009      45.760000000000005
   168   1      3.5200000000000031      52.800000000000011      49.280000000000001
   169   1      3.5200000000000031      54.560000000000009      51.039999999999999
   170   1       5.280000000000002      52.800000000000011      51.039999999999999
   171   1       5.280000000000002      54.560000000000009      49.280000000000001
   172   1      3.5200000000000031      52.800000000000011      52.800000000000011
   173   1      3.5200000000000031      54.560000000000009      54.560000000000009
   174   1       5.280000000000002      52.800000000000011      54.560000000000009
   175   1       5.280000000000002      54.560000000000009      52.800000000000011
   176   1       5.280000000000002      54.560000000000009      56.320000000000007
   177   1       5.280000000000002      56.320000000000007      36.960000000000001
   178   1       5.280000000000002      56.320000000000007      40.480000000000011
   179   1       5.280000000000002      56.320000000000007                      44
   180   1       5.280000000000002      56.320000000000007       47.52000000000001
   181   1       5.280000000000002      56.320000000000007      51.039999999999999
   182   1       5.280000000000002      56.320000000000007      54.560000000000009
   183   1      8.8000000000000043      29.920000000000005       31.68000000000001
   184   1      8.8000000000000043      29.920000000000005      35.200000000000003
   185   1      8.8000000000000043      29.920000000000005      38.720000000000006
   186   1      8.8000000000000043      29.920000000000005      42.240000000000009
   187   1      8.8000000000000043      29.920000000000005      45.760000000000005
   188   1      8.8000000000000043      29.920000000000005      49.280000000000001
   189   1      8.8000000000000043      29.920000000000005      52.800000000000011
   190   1      8.8000000000000043      29.920000000000005      56.320000000000007
   191   1      8.8000000000000043      29.920000000000005      59.840000000000011
   192   1      8.8000000000000043       31.68000000000001      29.920000000000005
   193   1      7.0400000000000063       31.68000000000001       31.68000000000001
   194   1      7.0400000000000063      33.440000000000012      33.440000000000012
   195   1      8.8000000000000043       31.68000000000001      33.440000000000012
   196   1      8.8000000000000043      33.440000000000012       31.68000000000001
   197   1      7.0400000000000063       31.68000000000001      35.200000000000003
   198   1      7.0400000000000063      33.440000000000012      36.960000000000001
   199   1      8.8000000000000043       31.68000000000001      36.960000000000001
   200   1      8.8000000000000043      33.440000000000012      35.200000000000003
   201   1      7.0400000000000063       31.68000000000001      38.720000000000006
   202   1      7.0400000000000063      33.440000000000012      40.480000000000011
   203   1      8.8000000000000043       31.68000000000001      40.480000000000011
   204   1      8.8000000000000043      33.440000000000012      38.720000000000006
   205   1      7.0400000000000063       31.68000000000001      42.240000000000009
   206   1      7.0400000000000063      33.440000000000012                      44
   207   1      8.8000000000000043       31.68000000000001                      44
   208   1      8.8000000000000043      33.440000000000012      42.240000000000009
   209   1      7.0400000000000063       31.68000000000001      45.760000000000005
   210   1      7.0400000000000063      33.440000000000012       47.52000000000001
   211   1      8.8000000000000043       31.68000000000001       47.52000000000001
   212   1      8.8000000000000043      33.440000000000012      45.760000000000005
   213   1      7.0400000000000063       31.68000000000001      49.280000000000001
   214   1      7.0400000000000063      33.440000000000012      51.039999999999999
   215   1      8.8000000000000043       31.68000000000001      51.039999999999999
   216   1      8.8000000000000043      33.440000000000012      49.280000000000001
   217   1      7.0400000000000063       31.68000000000001      52.800000000000011
   218   1      7.0400000000000063      33.440000000000012      54.560000000000009
   219   1      8.8000000000000043       31.68000000000001      54.560000000000009
   220   1      8.8000000000000043      33.440000000000012      52.800000000000011
   221   1      7.0400000000000063       31.68000000000001      56.320000000000007
   222   1      7.0400000000000063      33.440000000000012      58.080000000000013
   223   1      8.8000000000000043       31.68000000000001      58.080000000000013
   224   1      8.8000000000000043      33.440000000000012      56.320000000000007
   225   1      7.0400000000000063       31.68000000000001      59.840000000000011
   226   1      8.8000000000000043       31.68000000000001      61.600000000000009
   227   1      8.8000000000000043      33.440000000000012      59.840000000000011
   228   1      8.8000000000000043      35.200000000000003      29.920000000000005
   229   1      7.0400000000000063      35.200000000000003       31.68000000000001
   230   1      7.0400000000000063      36.960000000000001      33.440000000000012
   231   1      8.8000000000000043      35.200000000000003      33.440000000000012
   232   1      8.8000000000000043      36.960000000000001       31.68000000000001
   233   1      7.0400000000000063      35.200000000000003      35.200000000000003
   234   1      7.0400000000000063      36.960000000000001      36.960000000000001
   235   1      8.8000000000000043      35.200000000000003      36.960000000000001
   236   1      8.8000000000000043      36.960000000000001      35.200000000000003
   237   1      7.0400000000000063      35.200000000000003      38.720000000000006
   238   1      7.0400000000000063      36.960000000000001      40.480000000000011
   239   1      8.8000000000000043      35.200000000000003      40.480000000000011
   240   1      8.8000000000000043      36.960000000000001      38.720000000000006
   241   1      7.0400000000000063      35.200000000000003      42.240000000000009
   242   1      7.0400000000000063      36.960000000000001                      44
   243   1      8.8000000000000043      35.200000000000003                      44
   244   1      8.8000000000000043      36.960000000000001      42.240000000000009
   245   1      7.0400000000000063      35.200000000000003      45.760000000000005
   246   1      7.0400000000000063      36.960000000000001       47.52000000000001
   247   1      8.8000000000000043      35.200000000000003       47.52000000000001
   248   1      8.8000000000000043      36.960000000000001      45.760000000000005
   249   1      7.0400000000000063      35.200000000000003      49.280000000000001
   250   1      7.0400000000000063      36.960000000000001      51.039999999999999
   251   1      8.8000000000000043      35.200000000000003      51.039999999999999
   252   1      8.8000000000000043      36.960000000000001      49.280000000000001
   253   1      7.0400000000000063      35.200000000000003      52.800000000000011
   254   1      7.0400000000000063      36.960000000000001      54.560000000000009
   255   1      8.8000000000000043      35.200000000000003      54.560000000000009
   256   1      8.8000000000000043      36.960000000000001      52.800000000000011
   257   1      7.0400000000000063      35.200000000000003      56.320000000000007
   258   1      7.0400000000000063      36.960000000000001      58.080000000000013
   259   1      8.8000000000000043      35.200000000000003      58.080000000000013
   260   1      8.8000000000000043      36.960000000000001      56.320000000000007
   261   1      7.0400000000000063      35.200000000000003      59.840000000000011
   262   1      8.8000000000000043      35.200000000000003      61.600000000000009
   263   1      8.8000000000000043      36.960000000000001      59.840000000000011
   264   1      8.8000000000000043      38.720000000000006      29.920000000000005
   265   1      7.0400000000000063      38.720000000000006       31.68000000000001
   266   1      7.0400000000000063      40.480000000000011      33.440000000000012
   267   1      8.8000000000000043      38.720000000000006      33.440000000000012
   268   1      8.8000000000000043      40.480000000000011       31.68000000000001
   269   1      7.0400000000000063      38.720000000000006      35.200000000000003
   270   1      7.0400000000000063      40.480000000000011      36.960000000000001
   271   1      8.8000000000000043      38.720000000000006      36.960000000000001
   272   1      8.8000000000000043      40.480000000000011      35.200000000000003
   273   1      7.0400000000000063      38.720000000000006      38.720000000000006
   274   1      7.0400000000000063      40.480000000000011      40.480000000000011
   275   1      8.8000000000000043      38.720000000000006      40.480000000000011
   276   1      8.8000000000000043      40.480000000000011      38.720000000000006
   277   1      7.0400000000000063      38.720000000000006      42.240000000000009
   278   1      7.0400000000000063      40.480000000000011                      44
   279   1      8.8000000000000043      38.720000000000006                      44
   280   1      8.8000000000000043      40.480000000000011      42.240000000000009
   281   1      7.0400000000000063      38.720000000000006      45.760000000000005
   282   1      7.0400000000000063      40.480000000000011       47.52000000000001
   283   1      8.8000000000000043      38.720000000000006       47.52000000000001
   284   1      8.8000000000000043      40.480000000000011      45.760000000000005
   285   1      7.0400000000000063      38.720000000000006      49.280000000000001
   286   1      7.0400000000000063      40.480000000000011      51.039999999999999
   287   1      8.8000000000000043      38.720000000000006      51.039999999999999
   288   1      8.8000000000000043      40.480000000000011      49.280000000000001
   289   1      7.0400000000000063      38.720000000000006      52.800000000000011
   290   1      7.0400000000000063      40.480000000000011      54.560000000000009
   291   1      8.8000000000000043      38.720000000000006      54.560000000000009
   292   1      8.8000000000000043      40.480000000000011      52.800000000000011
   293   1      7.0400000000000063      38.720000000000006      56.320000000000007
   294   1      7.0400000000000063      40.480000000000011      58.080000000000013
   295   1      8.8000000000000043      38.720000000000006      58.080000000000013
   296   1      8.8000000000000043      40.480000000000011      56.320000000000007
   297   1      7.0400000000000063      38.720000000000006      59.840000000000011
   298   1      8.8000000000000043      38.720000000000006      61.600000000000009
   299   1      8.8000000000000043      40.480000000000011      59.840000000000011
   300   1      8.8000000000000043      42.240000000000009      29.920000000000005
   301   1      7.0400000000000063      42.240000000000009       31.68000000000001
   302   1      7.0400000000000063                      44      33.440000000000012
   303   1      8.8000000000000043      42.240000000000009      33.440000000000012
   304   1      8.8000000000000043                      44       31.68000000000001
   305   1      7.0400000000000063      42.240000000000009      35.200000000000003
   306   1      7.0400000000000063                      44      36.960000000000001
   307   1      8.8000000000000043      42.240000000000009      36.960000000000001
   308   1      8.8000000000000043                      44      35.200000000000003
   309   1      7.0400000000000063      42.240000000000009      38.720000000000006
   310   1      7.0400000000000063                      44      40.480000000000011
   311   1      8.8000000000000043      42.240000000000009      40.480000000000011
   312   1      8.8000000000000043                      44      38.720000000000006
   313   1      7.0400000000000063      42.240000000000009      42.240000000000009
   314   1      7.0400000000000063                      44                      44
   315   1      8.8000000000000043      42.240000000000009                      44
   316   1      8.8000000000000043                      44      42.240000000000009
   317   1      7.0400000000000063      42.240000000000009      45.760000000000005
   318   1      7.0400000000000063                      44       47.52000000000001
   319   1      8.8000000000000043      42.240000000000009       47.52000000000001
   320   1      8.8000000000000043                      44      45.760000000000005
   321   1      7.0400000000000063      42.240000000000009      49.280000000000001
   322   1      7.0400000000000063                      44      51.039999999999999
   323   1      8.8000000000000043      42.240000000000009      51.039999999999999
   324   1      8.8000000000000043                      44      49.280000000000001
   325   1      7.0400000000000063      42.240000000000009      52.800000000000011
   326   1      7.0400000000000063                      44      54.560000000000009
   327   1      8.8000000000000043      42.240000000000009      54.560000000000009
   328   1      8.8000000000000043                      44      52.800000000000011
   329   1      7.0400000000000063      42.240000000000009      56.320000000000007
   330   1      7.0400000000000063                      44      58.080000000000013
   331   1      8.8000000000000043      42.240000000000009      58.080000000000013
   332   1      8.8000000000000043                      44      56.320000000000007
   333   1      7.0400000000000063      42.240000000000009      59.840000000000011
   334   1      8.8000000000000043      42.240000000000009      61.600000000000009
   335   1      8.8000000000000043                      44      59.840000000000011
   336   1      8.8000000000000043      45.760000000000005      29.920000000000005
   337   1      7.0400000000000063      45.760000000000005       31.68000000000001
   338   1      7.0400000000000063       47.52000000000001      33.440000000000012
   339   1      8.8000000000000043      45.760000000000005      33.440000000000012
   340   1      8.8000000000000043       47.52000000000001       31.68000000000001
   341   1      7.0400000000000063      45.760000000000005      35.200000000000003
   342   1      7.0400000000000063       47.52000000000001      36.960000000000001
   343   1      8.8000000000000043      45.760000000000005      36.960000000000001
   344   1      8.8000000000000043       47.52000000000001      35.200000000000003
   345   1      7.0400000000000063      45.760000000000005      38.720000000000006
   346   1      7.0400000000000063       47.52000000000001      40.480000000000011
   347   1      8.8000000000000043      45.760000000000005      40.480000000000011
   348   1      8.8000000000000043       47.52000000000001      38.720000000000006
   349   1      7.0400000000000063      45.760000000000005      42.240000000000009
   350   1      7.0400000000000063       47.52000000000001                      44
   351   1      8.8000000000000043      45.760000000000005                      44
   352   1      8.8000000000000043       47.52000000000001      42.240000000000009
   353   1      7.0400000000000063      45.760000000000005      45.760000000000005
   354   1      7.0400000000000063       47.52000000000001       47.52000000000001
   355   1      8.8000000000000043      45.760000000000005       47.52000000000001
   356   1      8.8000000000000043       47.52000000000001      45.760000000000005
   357   1      7.0400000000000063      45.760000000000005      49.280000000000001
   358   1      7.0400000000000063       47.52000000000001      51.039999999999999