model_files/CuAu/CuAu_30000/CuAu_520/CuAu_520_fcc_30029_temp.data (written by ASE) 

30029 	 atoms 
2  atom types
0.0                      91  xlo xhi
0.0                      91  ylo yhi
0.0                      91  zlo zhi


Atoms 

     1   1      1.8699999999999903      39.269999999999989      41.139999999999993
     2   1      1.8699999999999903      39.269999999999989      44.880000000000003
     3   1      1.8699999999999903      39.269999999999989      48.619999999999997
     4   1      1.8699999999999903      41.139999999999993      39.269999999999989
     5   1      90.999999999999986      43.009999999999991      43.009999999999991
     6   1      1.8699999999999903      41.139999999999993      43.009999999999991
     7   1      1.8699999999999903      43.009999999999991      41.139999999999993
     8   1      90.999999999999986      43.009999999999991      46.749999999999993
     9   1      1.8699999999999903      41.139999999999993      46.749999999999993
    10   1      1.8699999999999903      43.009999999999991      44.880000000000003
    11   1      1.8699999999999903      41.139999999999993      50.489999999999988
    12   1      1.8699999999999903      43.009999999999991      48.619999999999997
    13   1      1.8699999999999903      44.880000000000003      39.269999999999989
    14   1      90.999999999999986      46.749999999999993      43.009999999999991
    15   1      1.8699999999999903      44.880000000000003      43.009999999999991
    16   1      1.8699999999999903      46.749999999999993      41.139999999999993
    17   1      90.999999999999986      44.880000000000003      44.880000000000003
    18   1      90.999999999999986      46.749999999999993      46.749999999999993
    19   1      1.8699999999999903      44.880000000000003      46.749999999999993
    20   1      1.8699999999999903      46.749999999999993      44.880000000000003
    21   1      1.8699999999999903      44.880000000000003      50.489999999999988
    22   1      1.8699999999999903      46.749999999999993      48.619999999999997
    23   1      1.8699999999999903      48.619999999999997      39.269999999999989
    24   1      1.8699999999999903      48.619999999999997      43.009999999999991
    25   1      1.8699999999999903      50.489999999999988      41.139999999999993
    26   1      1.8699999999999903      48.619999999999997      46.749999999999993
    27   1      1.8699999999999903      50.489999999999988      44.880000000000003
    28   1      1.8699999999999903      48.619999999999997      50.489999999999988
    29   1      1.8699999999999903      50.489999999999988      48.619999999999997
    30   1      5.6099999999999932      29.919999999999998      31.789999999999996
    31   1      5.6099999999999932      31.789999999999996      29.919999999999998
    32   1      5.6099999999999932      29.919999999999998      35.529999999999994
    33   1      5.6099999999999932      31.789999999999996      33.660000000000004
    34   1      5.6099999999999932      29.919999999999998      39.269999999999989
    35   1      5.6099999999999932      31.789999999999996      37.399999999999991
    36   1      5.6099999999999932      29.919999999999998      43.009999999999991
    37   1      5.6099999999999932      31.789999999999996      41.139999999999993
    38   1      5.6099999999999932      29.919999999999998      46.749999999999993
    39   1      5.6099999999999932      31.789999999999996      44.880000000000003
    40   1      5.6099999999999932      29.919999999999998      50.489999999999988
    41   1      5.6099999999999932      31.789999999999996      48.619999999999997
    42   1      5.6099999999999932      29.919999999999998       54.22999999999999
    43   1      5.6099999999999932      31.789999999999996      52.359999999999999
    44   1      5.6099999999999932      29.919999999999998      57.969999999999992
    45   1      5.6099999999999932      31.789999999999996      56.100000000000001
    46   1      5.6099999999999932      31.789999999999996      59.840000000000003
    47   1      5.6099999999999932      33.660000000000004      31.789999999999996
    48   1      5.6099999999999932      35.529999999999994      29.919999999999998
    49   1      3.7399999999999953      33.660000000000004      33.660000000000004
    50   1      3.7399999999999953      35.529999999999994      35.529999999999994
    51   1      5.6099999999999932      33.660000000000004      35.529999999999994
    52   1      5.6099999999999932      35.529999999999994      33.660000000000004
    53   1      3.7399999999999953      33.660000000000004      37.399999999999991
    54   1      3.7399999999999953      35.529999999999994      39.269999999999989
    55   1      5.6099999999999932      33.660000000000004      39.269999999999989
    56   1      5.6099999999999932      35.529999999999994      37.399999999999991
    57   1      3.7399999999999953      33.660000000000004      41.139999999999993
    58   1      3.7399999999999953      35.529999999999994      43.009999999999991
    59   1      5.6099999999999932      33.660000000000004      43.009999999999991
    60   1      5.6099999999999932      35.529999999999994      41.139999999999993
    61   1      3.7399999999999953      33.660000000000004      44.880000000000003
    62   1      3.7399999999999953      35.529999999999994      46.749999999999993
    63   1      5.6099999999999932      33.660000000000004      46.749999999999993
    64   1      5.6099999999999932      35.529999999999994      44.880000000000003
    65   1      3.7399999999999953      33.660000000000004      48.619999999999997
    66   1      3.7399999999999953      35.529999999999994      50.489999999999988
    67   1      5.6099999999999932      33.660000000000004      50.489999999999988
    68   1      5.6099999999999932      35.529999999999994      48.619999999999997
    69   1      3.7399999999999953      33.660000000000004      52.359999999999999
    70   1      3.7399999999999953      35.529999999999994       54.22999999999999
    71   1      5.6099999999999932      33.660000000000004       54.22999999999999
    72   1      5.6099999999999932      35.529999999999994      52.359999999999999
    73   1      3.7399999999999953      33.660000000000004      56.100000000000001
    74   1      5.6099999999999932      33.660000000000004      57.969999999999992
    75   1      5.6099999999999932      35.529999999999994      56.100000000000001
    76   1      5.6099999999999932      35.529999999999994      59.840000000000003
    77   1      5.6099999999999932      37.399999999999991      31.789999999999996
    78   1      5.6099999999999932      39.269999999999989      29.919999999999998
    79   1      3.7399999999999953      37.399999999999991      33.660000000000004
    80   1      3.7399999999999953      39.269999999999989      35.529999999999994
    81   1      5.6099999999999932      37.399999999999991      35.529999999999994
    82   1      5.6099999999999932      39.269999999999989      33.660000000000004
    83   1      3.7399999999999953      37.399999999999991      37.399999999999991
    84   1      3.7399999999999953      39.269999999999989      39.269999999999989
    85   1      5.6099999999999932      37.399999999999991      39.269999999999989
    86   1      5.6099999999999932      39.269999999999989      37.399999999999991
    87   1      3.7399999999999953      37.399999999999991      41.139999999999993
    88   1      3.7399999999999953      39.269999999999989      43.009999999999991
    89   1      5.6099999999999932      37.399999999999991      43.009999999999991
    90   1      5.6099999999999932      39.269999999999989      41.139999999999993
    91   1      3.7399999999999953      37.399999999999991      44.880000000000003
    92   1      3.7399999999999953      39.269999999999989      46.749999999999993
    93   1      5.6099999999999932      37.399999999999991      46.749999999999993
    94   1      5.6099999999999932      39.269999999999989      44.880000000000003
    95   1      3.7399999999999953      37.399999999999991      48.619999999999997
    96   1      3.7399999999999953      39.269999999999989      50.489999999999988
    97   1      5.6099999999999932      37.399999999999991      50.489999999999988
    98   1      5.6099999999999932      39.269999999999989      48.619999999999997
    99   1      3.7399999999999953      37.399999999999991      52.359999999999999
   100   1      3.7399999999999953      39.269999999999989       54.22999999999999
   101   1      5.6099999999999932      37.399999999999991       54.22999999999999
   102   1      5.6099999999999932      39.269999999999989      52.359999999999999
   103   1      3.7399999999999953      37.399999999999991      56.100000000000001
   104   1      5.6099999999999932      37.399999999999991      57.969999999999992
   105   1      5.6099999999999932      39.269999999999989      56.100000000000001
   106   1      5.6099999999999932      39.269999999999989      59.840000000000003
   107   1      5.6099999999999932      41.139999999999993      31.789999999999996
   108   1      5.6099999999999932      43.009999999999991      29.919999999999998
   109   1      3.7399999999999953      41.139999999999993      33.660000000000004
   110   1      3.7399999999999953      43.009999999999991      35.529999999999994
   111   1      5.6099999999999932      41.139999999999993      35.529999999999994
   112   1      5.6099999999999932      43.009999999999991      33.660000000000004
   113   1      3.7399999999999953      41.139999999999993      37.399999999999991
   114   1      3.7399999999999953      43.009999999999991      39.269999999999989
   115   1      5.6099999999999932      41.139999999999993      39.269999999999989
   116   1      5.6099999999999932      43.009999999999991      37.399999999999991
   117   1      3.7399999999999953      41.139999999999993      41.139999999999993
   118   1      3.7399999999999953      43.009999999999991      43.009999999999991
   119   1      5.6099999999999932      41.139999999999993      43.009999999999991
   120   1      5.6099999999999932      43.009999999999991      41.139999999999993
   121   1      3.7399999999999953      41.139999999999993      44.880000000000003
   122   1      3.7399999999999953      43.009999999999991      46.749999999999993
   123   1      5.6099999999999932      41.139999999999993      46.749999999999993
   124   1      5.6099999999999932      43.009999999999991      44.880000000000003
   125   1      3.7399999999999953      41.139999999999993      48.619999999999997
   126   1      3.7399999999999953      43.009999999999991      50.489999999999988
   127   1      5.6099999999999932      41.139999999999993      50.489999999999988
   128   1      5.6099999999999932      43.009999999999991      48.619999999999997
   129   1      3.7399999999999953      41.139999999999993      52.359999999999999
   130   1      3.7399999999999953      43.009999999999991       54.22999999999999
   131   1      5.6099999999999932      41.139999999999993       54.22999999999999
   132   1      5.6099999999999932      43.009999999999991      52.359999999999999
   133   1      3.7399999999999953      41.139999999999993      56.100000000000001
   134   1      5.6099999999999932      41.139999999999993      57.969999999999992
   135   1      5.6099999999999932      43.009999999999991      56.100000000000001
   136   1      5.6099999999999932      43.009999999999991      59.840000000000003
   137   1      5.6099999999999932      44.880000000000003      31.789999999999996
   138   1      5.6099999999999932      46.749999999999993      29.919999999999998
   139   1      3.7399999999999953      44.880000000000003      33.660000000000004
   140   1      3.7399999999999953      46.749999999999993      35.529999999999994
   141   1      5.6099999999999932      44.880000000000003      35.529999999999994
   142   1      5.6099999999999932      46.749999999999993      33.660000000000004
   143   1      3.7399999999999953      44.880000000000003      37.399999999999991
   144   1      3.7399999999999953      46.749999999999993      39.269999999999989
   145   1      5.6099999999999932      44.880000000000003      39.269999999999989
   146   1      5.6099999999999932      46.749999999999993      37.399999999999991
   147   1      3.7399999999999953      44.880000000000003      41.139999999999993
   148   1      3.7399999999999953      46.749999999999993      43.009999999999991
   149   1      5.6099999999999932      44.880000000000003      43.009999999999991
   150   1      5.6099999999999932      46.749999999999993      41.139999999999993
   151   1      3.7399999999999953      44.880000000000003      44.880000000000003
   152   1      3.7399999999999953      46.749999999999993      46.749999999999993
   153   1      5.6099999999999932      44.880000000000003      46.749999999999993
   154   1      5.6099999999999932      46.749999999999993      44.880000000000003
   155   1      3.7399999999999953      44.880000000000003      48.619999999999997
   156   1      3.7399999999999953      46.749999999999993      50.489999999999988
   157   1      5.6099999999999932      44.880000000000003      50.489999999999988
   158   1      5.6099999999999932      46.749999999999993      48.619999999999997
   159   1      3.7399999999999953      44.880000000000003      52.359999999999999
   160   1      3.7399999999999953      46.749999999999993       54.22999999999999
   161   1      5.6099999999999932      44.880000000000003       54.22999999999999
   162   1      5.6099999999999932      46.749999999999993      52.359999999999999
   163   1      3.7399999999999953      44.880000000000003      56.100000000000001
   164   1      5.6099999999999932      44.880000000000003      57.969999999999992
   165   1      5.6099999999999932      46.749999999999993      56.100000000000001
   166   1      5.6099999999999932      46.749999999999993      59.840000000000003
   167   1      5.6099999999999932      48.619999999999997      31.789999999999996
   168   1      5.6099999999999932      50.489999999999988      29.919999999999998
   169   1      3.7399999999999953      48.619999999999997      33.660000000000004
   170   1      3.7399999999999953      50.489999999999988      35.529999999999994
   171   1      5.6099999999999932      48.619999999999997      35.529999999999994
   172   1      5.6099999999999932      50.489999999999988      33.660000000000004
   173   1      3.7399999999999953      48.619999999999997      37.399999999999991
   174   1      3.7399999999999953      50.489999999999988      39.269999999999989
   175   1      5.6099999999999932      48.619999999999997      39.269999999999989
   176   1      5.6099999999999932      50.489999999999988      37.399999999999991
   177   1      3.7399999999999953      48.619999999999997      41.139999999999993
   178   1      3.7399999999999953      50.489999999999988      43.009999999999991
   179   1      5.6099999999999932      48.619999999999997      43.009999999999991
   180   1      5.6099999999999932      50.489999999999988      41.139999999999993
   181   1      3.7399999999999953      48.619999999999997      44.880000000000003
   182   1      3.7399999999999953      50.489999999999988      46.749999999999993
   183   1      5.6099999999999932      48.619999999999997      46.749999999999993
   184   1      5.6099999999999932      50.489999999999988      44.880000000000003
   185   1      3.7399999999999953      48.619999999999997      48.619999999999997
   186   1      3.7399999999999953      50.489999999999988      50.489999999999988
   187   1      5.6099999999999932      48.619999999999997      50.489999999999988
   188   1      5.6099999999999932      50.489999999999988      48.619999999999997
   189   1      3.7399999999999953      48.619999999999997      52.359999999999999
   190   1      3.7399999999999953      50.489999999999988       54.22999999999999
   191   1      5.6099999999999932      48.619999999999997       54.22999999999999
   192   1      5.6099999999999932      50.489999999999988      52.359999999999999
   193   1      3.7399999999999953      48.619999999999997      56.100000000000001
   194   1      5.6099999999999932      48.619999999999997      57.969999999999992
   195   1      5.6099999999999932      50.489999999999988      56.100000000000001
   196   1      5.6099999999999932      50.489999999999988      59.840000000000003
   197   1      5.6099999999999932      52.359999999999999      31.789999999999996
   198   1      5.6099999999999932       54.22999999999999      29.919999999999998
   199   1      3.7399999999999953      52.359999999999999      33.660000000000004
   200   1      3.7399999999999953       54.22999999999999      35.529999999999994
   201   1      5.6099999999999932      52.359999999999999      35.529999999999994
   202   1      5.6099999999999932       54.22999999999999      33.660000000000004
   203   1      3.7399999999999953      52.359999999999999      37.399999999999991
   204   1      3.7399999999999953       54.22999999999999      39.269999999999989
   205   1      5.6099999999999932      52.359999999999999      39.269999999999989
   206   1      5.6099999999999932       54.22999999999999      37.399999999999991
   207   1      3.7399999999999953      52.359999999999999      41.139999999999993
   208   1      3.7399999999999953       54.22999999999999      43.009999999999991
   209   1      5.6099999999999932      52.359999999999999      43.009999999999991
   210   1      5.6099999999999932       54.22999999999999      41.139999999999993
   211   1      3.7399999999999953      52.359999999999999      44.880000000000003
   212   1      3.7399999999999953       54.22999999999999      46.749999999999993
   213   1      5.6099999999999932      52.359999999999999      46.749999999999993
   214   1      5.6099999999999932       54.22999999999999      44.880000000000003
   215   1      3.7399999999999953      52.359999999999999      48.619999999999997
   216   1      3.7399999999999953       54.22999999999999      50.489999999999988
   217   1      5.6099999999999932      52.359999999999999      50.489999999999988
   218   1      5.6099999999999932       54.22999999999999      48.619999999999997
   219   1      3.7399999999999953      52.359999999999999      52.359999999999999
   220   1      3.7399999999999953       54.22999999999999       54.22999999999999
   221   1      5.6099999999999932      52.359999999999999       54.22999999999999
   222   1      5.6099999999999932       54.22999999999999      52.359999999999999
   223   1      3.7399999999999953      52.359999999999999      56.100000000000001
   224   1      5.6099999999999932      52.359999999999999      57.969999999999992
   225   1      5.6099999999999932       54.22999999999999      56.100000000000001
   226   1      5.6099999999999932       54.22999999999999      59.840000000000003
   227   1      5.6099999999999932      56.100000000000001      31.789999999999996
   228   1      5.6099999999999932      57.969999999999992      29.919999999999998
   229   1      3.7399999999999953      56.100000000000001      33.660000000000004
   230   1      5.6099999999999932      56.100000000000001      35.529999999999994
   231   1      5.6099999999999932      57.969999999999992      33.660000000000004
   232   1      3.7399999999999953      56.100000000000001      37.399999999999991
   233   1      5.6099999999999932      56.100000000000001      39.269999999999989
   234   1      5.6099999999999932      57.969999999999992      37.399999999999991
   235   1      3.7399999999999953      56.100000000000001      41.139999999999993
   236   1      5.6099999999999932      56.100000000000001      43.009999999999991
   237   1      5.6099999999999932      57.969999999999992      41.139999999999993
   238   1      3.7399999999999953      56.100000000000001      44.880000000000003
   239   1      5.6099999999999932      56.100000000000001      46.749999999999993
   240   1      5.6099999999999932      57.969999999999992      44.880000000000003
   241   1      3.7399999999999953      56.100000000000001      48.619999999999997
   242   1      5.6099999999999932      56.100000000000001      50.489999999999988
   243   1      5.6099999999999932      57.969999999999992      48.619999999999997
   244   1      3.7399999999999953      56.100000000000001      52.359999999999999
   245   1      5.6099999999999932      56.100000000000001       54.22999999999999
   246   1      5.6099999999999932      57.969999999999992      52.359999999999999
   247   1      3.7399999999999953      56.100000000000001      56.100000000000001
   248   1      5.6099999999999932      56.100000000000001      57.969999999999992
   249   1      5.6099999999999932      57.969999999999992      56.100000000000001
   250   1      5.6099999999999932      57.969999999999992      59.840000000000003
   251   1      5.6099999999999932      59.840000000000003      31.789999999999996
   252   1      5.6099999999999932      59.840000000000003      35.529999999999994
   253   1      5.6099999999999932      59.840000000000003      39.269999999999989
   254   1      5.6099999999999932      59.840000000000003      43.009999999999991
   255   1      5.6099999999999932      59.840000000000003      46.749999999999993
   256   1      5.6099999999999932      59.840000000000003      50.489999999999988
   257   1      5.6099999999999932      59.840000000000003       54.22999999999999
   258   1      5.6099999999999932      59.840000000000003      57.969999999999992
   259   1      9.3499999999999943      20.569999999999997      22.439999999999991
   260   1      9.3499999999999943      20.569999999999997      26.179999999999996
   261   1      9.3499999999999943      20.569999999999997      29.919999999999998
   262   1      9.3499999999999943      20.569999999999997      33.660000000000004
   263   1      9.3499999999999943      20.569999999999997      37.399999999999991
   264   1      9.3499999999999943      20.569999999999997      41.139999999999993
   265   1      9.3499999999999943      20.569999999999997      44.880000000000003
   266   1      9.3499999999999943      20.569999999999997      48.619999999999997
   267   1      9.3499999999999943      20.569999999999997      52.359999999999999
   268   1      9.3499999999999943      20.569999999999997      56.100000000000001
   269   1      9.3499999999999943      20.569999999999997      59.840000000000003
   270   1      9.3499999999999943      20.569999999999997      63.579999999999998
   271   1      9.3499999999999943      20.569999999999997      67.320000000000007
   272   1      9.3499999999999943      22.439999999999991      20.569999999999997
   273   1      7.4799999999999907      24.309999999999995      24.309999999999995
   274   1      9.3499999999999943      22.439999999999991      24.309999999999995
   275   1      9.3499999999999943      24.309999999999995      22.439999999999991
   276   1      7.4799999999999907      24.309999999999995      28.049999999999997
   277   1      9.3499999999999943      22.439999999999991      28.049999999999997
   278   1      9.3499999999999943      24.309999999999995      26.179999999999996
   279   1      7.4799999999999907      24.309999999999995      31.789999999999996
   280   1      9.3499999999999943      22.439999999999991      31.789999999999996
   281   1      9.3499999999999943      24.309999999999995      29.919999999999998
   282   1      7.4799999999999907      24.309999999999995      35.529999999999994
   283   1      9.3499999999999943      22.439999999999991      35.529999999999994
   284   1      9.3499999999999943      24.309999999999995      33.660000000000004
   285   1      7.4799999999999907      24.309999999999995      39.269999999999989
   286   1      9.3499999999999943      22.439999999999991      39.269999999999989
   287   1      9.3499999999999943      24.309999999999995      37.399999999999991
   288   1      7.4799999999999907      24.309999999999995      43.009999999999991
   289   1      9.3499999999999943      22.439999999999991      43.009999999999991
   290   1      9.3499999999999943      24.309999999999995      41.139999999999993
   291   1      7.4799999999999907      24.309999999999995      46.749999999999993
   292   1      9.3499999999999943      22.439999999999991      46.749999999999993
   293   1      9.3499999999999943      24.309999999999995      44.880000000000003
   294   1      7.4799999999999907      24.309999999999995      50.489999999999988
   295   1      9.3499999999999943      22.439999999999991      50.489999999999988
   296   1      9.3499999999999943      24.309999999999995      48.619999999999997
   297   1      7.4799999999999907      24.309999999999995       54.22999999999999
   298   1      9.3499999999999943      22.439999999999991       54.22999999999999
   299   1      9.3499999999999943      24.309999999999995      52.359999999999999
   300   1      7.4799999999999907      24.309999999999995      57.969999999999992
   301   1      9.3499999999999943      22.439999999999991      57.969999999999992
   302   1      9.3499999999999943      24.309999999999995      56.100000000000001
   303   1      7.4799999999999907      24.309999999999995      61.709999999999994
   304   1      9.3499999999999943      22.439999999999991      61.709999999999994
   305   1      9.3499999999999943      24.309999999999995      59.840000000000003
   306   1      7.4799999999999907      24.309999999999995      65.450000000000017
   307   1      9.3499999999999943      22.439999999999991      65.450000000000017
   308   1      9.3499999999999943      24.309999999999995      63.579999999999998
   309   1      9.3499999999999943      22.439999999999991      69.189999999999998
   310   1      9.3499999999999943      24.309999999999995      67.320000000000007
   311   1      9.3499999999999943      26.179999999999996      20.569999999999997
   312   1      7.4799999999999907      28.049999999999997      24.309999999999995
   313   1      9.3499999999999943      26.179999999999996      24.309999999999995
   314   1      9.3499999999999943      28.049999999999997      22.439999999999991
   315   1      7.4799999999999907      26.179999999999996      26.179999999999996
   316   1      7.4799999999999907      28.049999999999997      28.049999999999997
   317   1      9.3499999999999943      26.179999999999996      28.049999999999997
   318   1      9.3499999999999943      28.049999999999997      26.179999999999996
   319   1      7.4799999999999907      26.179999999999996      29.919999999999998
   320   1      7.4799999999999907      28.049999999999997      31.789999999999996
   321   1      9.3499999999999943      26.179999999999996      31.789999999999996
   322   1      9.3499999999999943      28.049999999999997      29.919999999999998
   323   1      7.4799999999999907      26.179999999999996      33.660000000000004
   324   1      7.4799999999999907      28.049999999999997      35.529999999999994
   325   1      9.3499999999999943      26.179999999999996      35.529999999999994
   326   1      9.3499999999999943      28.049999999999997      33.660000000000004
   327   1      7.4799999999999907      26.179999999999996      37.399999999999991
   328   1      7.4799999999999907      28.049999999999997      39.269999999999989
   329   1      9.3499999999999943      26.179999999999996      39.269999999999989
   330   1      9.3499999999999943      28.049999999999997      37.399999999999991
   331   1      7.4799999999999907      26.179999999999996      41.139999999999993
   332   1      7.4799999999999907      28.049999999999997      43.009999999999991
   333   1      9.3499999999999943      26.179999999999996      43.009999999999991
   334   1      9.3499999999999943      28.049999999999997      41.139999999999993
   335   1      7.4799999999999907      26.179999999999996      44.880000000000003
   336   1      7.4799999999999907      28.049999999999997      46.749999999999993
   337   1      9.3499999999999943      26.179999999999996      46.749999999999993
   338   1      9.3499999999999943      28.049999999999997      44.880000000000003
   339   1      7.4799999999999907      26.179999999999996      48.619999999999997
   340   1      7.4799999999999907      28.049999999999997      50.489999999999988
   341   1      9.3499999999999943      26.179999999999996      50.489999999999988
   342   1      9.3499999999999943      28.049999999999997      48.619999999999997
   343   1      7.4799999999999907      26.179999999999996      52.359999999999999
   344   1      7.4799999999999907      28.049999999999997       54.22999999999999
   345   1      9.3499999999999943      26.179999999999996       54.22999999999999
   346   1      9.3499999999999943      28.049999999999997      52.359999999999999
   347   1      7.4799999999999907      26.179999999999996      56.100000000000001
   348   1      7.4799999999999907      28.049999999999997      57.969999999999992
   349   1      9.3499999999999943      26.179999999999996      57.969999999999992
   350   1      9.3499999999999943      28.049999999999997      56.100000000000001
   351   1      7.4799999999999907      26.179999999999996      59.840000000000003
   352   1      7.4799999999999907      28.049999999999997      61.709999999999994
   353   1      9.3499999999999943      26.179999999999996      61.709999999999994
   354   1      9.3499999999999943      28.049999999999997      59.840000000000003
   355   1      7.4799999999999907      26.179999999999996      63.579999999999998
   356   1      7.4799999999999907      28.049999999999997      65.450000000000017
   357   1      9.3499999999999943      26.179999999999996      65.450000000000017
   358   1      9.3499999999999943      28.049999999999997      63.579999999999998