model_files/Ni/Ni_30000/Ni_431/data.Ni_431_fcc_29685 (written by ASE) 

29685 	 atoms 
1  atom types
0.0                      98  xlo xhi
0.0                      98  ylo yhi
0.0                      98  zlo zhi


Atoms 

     1   1      1.7600000000000051      43.999999999999993      49.279999999999994
     2   1  7.1054273576010011e-15      47.519999999999996      47.519999999999996
     3   1      1.7600000000000051      45.759999999999998      47.519999999999996
     4   1      1.7600000000000051      47.519999999999996      45.759999999999998
     5   1  7.1054273576010011e-15      45.759999999999998      49.279999999999994
     6   1  7.1054273576010011e-15      47.519999999999996      51.039999999999992
     7   1      1.7600000000000051      45.759999999999998      51.039999999999992
     8   1      1.7600000000000051      47.519999999999996      49.279999999999994
     9   1      1.7600000000000051      47.519999999999996      52.800000000000004
    10   1      1.7600000000000051      49.279999999999994      43.999999999999993
    11   1  7.1054273576010011e-15      49.279999999999994      45.759999999999998
    12   1  7.1054273576010011e-15      51.039999999999992      47.519999999999996
    13   1      1.7600000000000051      49.279999999999994      47.519999999999996
    14   1      1.7600000000000051      51.039999999999992      45.759999999999998
    15   1  7.1054273576010011e-15      49.279999999999994      49.279999999999994
    16   1  7.1054273576010011e-15      51.039999999999992      51.039999999999992
    17   1      1.7600000000000051      49.279999999999994      51.039999999999992
    18   1      1.7600000000000051      51.039999999999992      49.279999999999994
    19   1  7.1054273576010011e-15      49.279999999999994      52.800000000000004
    20   1      1.7600000000000051      49.279999999999994      54.560000000000002
    21   1      1.7600000000000051      51.039999999999992      52.800000000000004
    22   1      1.7600000000000051      52.800000000000004      47.519999999999996
    23   1  7.1054273576010011e-15      52.800000000000004      49.279999999999994
    24   1      1.7600000000000051      52.800000000000004      51.039999999999992
    25   1      1.7600000000000051      54.560000000000002      49.279999999999994
    26   1      5.2800000000000011      40.480000000000004      45.759999999999998
    27   1      5.2800000000000011      40.480000000000004      49.279999999999994
    28   1      5.2800000000000011      40.480000000000004      52.800000000000004
    29   1      3.5200000000000027      43.999999999999993      43.999999999999993
    30   1      5.2800000000000011      42.240000000000002      43.999999999999993
    31   1      5.2800000000000011      43.999999999999993      42.240000000000002
    32   1      3.5200000000000027      42.240000000000002      45.759999999999998
    33   1      3.5200000000000027      43.999999999999993      47.519999999999996
    34   1      5.2800000000000011      42.240000000000002      47.519999999999996
    35   1      5.2800000000000011      43.999999999999993      45.759999999999998
    36   1      3.5200000000000027      42.240000000000002      49.279999999999994
    37   1      3.5200000000000027      43.999999999999993      51.039999999999992
    38   1      5.2800000000000011      42.240000000000002      51.039999999999992
    39   1      5.2800000000000011      43.999999999999993      49.279999999999994
    40   1      3.5200000000000027      42.240000000000002      52.800000000000004
    41   1      3.5200000000000027      43.999999999999993      54.560000000000002
    42   1      5.2800000000000011      42.240000000000002      54.560000000000002
    43   1      5.2800000000000011      43.999999999999993      52.800000000000004
    44   1      5.2800000000000011      43.999999999999993                   56.32
    45   1      5.2800000000000011      45.759999999999998      40.480000000000004
    46   1      3.5200000000000027      45.759999999999998      42.240000000000002
    47   1      3.5200000000000027      47.519999999999996      43.999999999999993
    48   1      5.2800000000000011      45.759999999999998      43.999999999999993
    49   1      5.2800000000000011      47.519999999999996      42.240000000000002
    50   1      3.5200000000000027      45.759999999999998      45.759999999999998
    51   1      3.5200000000000027      47.519999999999996      47.519999999999996
    52   1      5.2800000000000011      45.759999999999998      47.519999999999996
    53   1      5.2800000000000011      47.519999999999996      45.759999999999998
    54   1      3.5200000000000027      45.759999999999998      49.279999999999994
    55   1      3.5200000000000027      47.519999999999996      51.039999999999992
    56   1      5.2800000000000011      45.759999999999998      51.039999999999992
    57   1      5.2800000000000011      47.519999999999996      49.279999999999994
    58   1      3.5200000000000027      45.759999999999998      52.800000000000004
    59   1      3.5200000000000027      47.519999999999996      54.560000000000002
    60   1      5.2800000000000011      45.759999999999998      54.560000000000002
    61   1      5.2800000000000011      47.519999999999996      52.800000000000004
    62   1      3.5200000000000027      45.759999999999998                   56.32
    63   1      5.2800000000000011      45.759999999999998      58.079999999999998
    64   1      5.2800000000000011      47.519999999999996                   56.32
    65   1      5.2800000000000011      49.279999999999994      40.480000000000004
    66   1      3.5200000000000027      49.279999999999994      42.240000000000002
    67   1      3.5200000000000027      51.039999999999992      43.999999999999993
    68   1      5.2800000000000011      49.279999999999994      43.999999999999993
    69   1      5.2800000000000011      51.039999999999992      42.240000000000002
    70   1      3.5200000000000027      49.279999999999994      45.759999999999998
    71   1      3.5200000000000027      51.039999999999992      47.519999999999996
    72   1      5.2800000000000011      49.279999999999994      47.519999999999996
    73   1      5.2800000000000011      51.039999999999992      45.759999999999998
    74   1      3.5200000000000027      49.279999999999994      49.279999999999994
    75   1      3.5200000000000027      51.039999999999992      51.039999999999992
    76   1      5.2800000000000011      49.279999999999994      51.039999999999992
    77   1      5.2800000000000011      51.039999999999992      49.279999999999994
    78   1      3.5200000000000027      49.279999999999994      52.800000000000004
    79   1      3.5200000000000027      51.039999999999992      54.560000000000002
    80   1      5.2800000000000011      49.279999999999994      54.560000000000002
    81   1      5.2800000000000011      51.039999999999992      52.800000000000004
    82   1      3.5200000000000027      49.279999999999994                   56.32
    83   1      5.2800000000000011      49.279999999999994      58.079999999999998
    84   1      5.2800000000000011      51.039999999999992                   56.32
    85   1      5.2800000000000011      52.800000000000004      40.480000000000004
    86   1      3.5200000000000027      52.800000000000004      42.240000000000002
    87   1      3.5200000000000027      54.560000000000002      43.999999999999993
    88   1      5.2800000000000011      52.800000000000004      43.999999999999993
    89   1      5.2800000000000011      54.560000000000002      42.240000000000002
    90   1      3.5200000000000027      52.800000000000004      45.759999999999998
    91   1      3.5200000000000027      54.560000000000002      47.519999999999996
    92   1      5.2800000000000011      52.800000000000004      47.519999999999996
    93   1      5.2800000000000011      54.560000000000002      45.759999999999998
    94   1      3.5200000000000027      52.800000000000004      49.279999999999994
    95   1      3.5200000000000027      54.560000000000002      51.039999999999992
    96   1      5.2800000000000011      52.800000000000004      51.039999999999992
    97   1      5.2800000000000011      54.560000000000002      49.279999999999994
    98   1      3.5200000000000027      52.800000000000004      52.800000000000004
    99   1      3.5200000000000027      54.560000000000002      54.560000000000002
   100   1      5.2800000000000011      52.800000000000004      54.560000000000002
   101   1      5.2800000000000011      54.560000000000002      52.800000000000004
   102   1      3.5200000000000027      52.800000000000004                   56.32
   103   1      5.2800000000000011      52.800000000000004      58.079999999999998
   104   1      5.2800000000000011      54.560000000000002                   56.32
   105   1      5.2800000000000011                   56.32      43.999999999999993
   106   1      3.5200000000000027                   56.32      45.759999999999998
   107   1      5.2800000000000011                   56.32      47.519999999999996
   108   1      5.2800000000000011      58.079999999999998      45.759999999999998
   109   1      3.5200000000000027                   56.32      49.279999999999994
   110   1      5.2800000000000011                   56.32      51.039999999999992
   111   1      5.2800000000000011      58.079999999999998      49.279999999999994
   112   1      3.5200000000000027                   56.32      52.800000000000004
   113   1      5.2800000000000011                   56.32      54.560000000000002
   114   1      5.2800000000000011      58.079999999999998      52.800000000000004
   115   1      8.8000000000000043      36.959999999999994      42.240000000000002
   116   1      7.0400000000000054      36.959999999999994      47.519999999999996
   117   1      8.8000000000000043      35.199999999999996      47.519999999999996
   118   1      8.8000000000000043      36.959999999999994      45.759999999999998
   119   1      7.0400000000000054      36.959999999999994      51.039999999999992
   120   1      8.8000000000000043      35.199999999999996      51.039999999999992
   121   1      8.8000000000000043      36.959999999999994      49.279999999999994
   122   1      8.8000000000000043      36.959999999999994      52.800000000000004
   123   1      8.8000000000000043      36.959999999999994                   56.32
   124   1      7.0400000000000054      40.480000000000004      40.480000000000004
   125   1      8.8000000000000043      38.719999999999999      40.480000000000004
   126   1      8.8000000000000043      40.480000000000004      38.719999999999999
   127   1      7.0400000000000054      38.719999999999999      42.240000000000002
   128   1      7.0400000000000054      40.480000000000004      43.999999999999993
   129   1      8.8000000000000043      38.719999999999999      43.999999999999993
   130   1      8.8000000000000043      40.480000000000004      42.240000000000002
   131   1      7.0400000000000054      38.719999999999999      45.759999999999998
   132   1      7.0400000000000054      40.480000000000004      47.519999999999996
   133   1      8.8000000000000043      38.719999999999999      47.519999999999996
   134   1      8.8000000000000043      40.480000000000004      45.759999999999998
   135   1      7.0400000000000054      38.719999999999999      49.279999999999994
   136   1      7.0400000000000054      40.480000000000004      51.039999999999992
   137   1      8.8000000000000043      38.719999999999999      51.039999999999992
   138   1      8.8000000000000043      40.480000000000004      49.279999999999994
   139   1      7.0400000000000054      38.719999999999999      52.800000000000004
   140   1      7.0400000000000054      40.480000000000004      54.560000000000002
   141   1      8.8000000000000043      38.719999999999999      54.560000000000002
   142   1      8.8000000000000043      40.480000000000004      52.800000000000004
   143   1      7.0400000000000054      38.719999999999999                   56.32
   144   1      7.0400000000000054      40.480000000000004      58.079999999999998
   145   1      8.8000000000000043      38.719999999999999      58.079999999999998
   146   1      8.8000000000000043      40.480000000000004                   56.32
   147   1      8.8000000000000043      40.480000000000004      59.839999999999996
   148   1      8.8000000000000043      42.240000000000002      36.959999999999994
   149   1      7.0400000000000054      42.240000000000002      38.719999999999999
   150   1      7.0400000000000054      43.999999999999993      40.480000000000004
   151   1      8.8000000000000043      42.240000000000002      40.480000000000004
   152   1      8.8000000000000043      43.999999999999993      38.719999999999999
   153   1      7.0400000000000054      42.240000000000002      42.240000000000002
   154   1      7.0400000000000054      43.999999999999993      43.999999999999993
   155   1      8.8000000000000043      42.240000000000002      43.999999999999993
   156   1      8.8000000000000043      43.999999999999993      42.240000000000002
   157   1      7.0400000000000054      42.240000000000002      45.759999999999998
   158   1      7.0400000000000054      43.999999999999993      47.519999999999996
   159   1      8.8000000000000043      42.240000000000002      47.519999999999996
   160   1      8.8000000000000043      43.999999999999993      45.759999999999998
   161   1      7.0400000000000054      42.240000000000002      49.279999999999994
   162   1      7.0400000000000054      43.999999999999993      51.039999999999992
   163   1      8.8000000000000043      42.240000000000002      51.039999999999992
   164   1      8.8000000000000043      43.999999999999993      49.279999999999994
   165   1      7.0400000000000054      42.240000000000002      52.800000000000004
   166   1      7.0400000000000054      43.999999999999993      54.560000000000002
   167   1      8.8000000000000043      42.240000000000002      54.560000000000002
   168   1      8.8000000000000043      43.999999999999993      52.800000000000004
   169   1      7.0400000000000054      42.240000000000002                   56.32
   170   1      7.0400000000000054      43.999999999999993      58.079999999999998
   171   1      8.8000000000000043      42.240000000000002      58.079999999999998
   172   1      8.8000000000000043      43.999999999999993                   56.32
   173   1      7.0400000000000054      42.240000000000002      59.839999999999996
   174   1      8.8000000000000043      42.240000000000002      61.600000000000001
   175   1      8.8000000000000043      43.999999999999993      59.839999999999996
   176   1      7.0400000000000054      47.519999999999996      36.959999999999994
   177   1      8.8000000000000043      45.759999999999998      36.959999999999994
   178   1      8.8000000000000043      47.519999999999996      35.199999999999996
   179   1      7.0400000000000054      45.759999999999998      38.719999999999999
   180   1      7.0400000000000054      47.519999999999996      40.480000000000004
   181   1      8.8000000000000043      45.759999999999998      40.480000000000004
   182   1      8.8000000000000043      47.519999999999996      38.719999999999999
   183   1      7.0400000000000054      45.759999999999998      42.240000000000002
   184   1      7.0400000000000054      47.519999999999996      43.999999999999993
   185   1      8.8000000000000043      45.759999999999998      43.999999999999993
   186   1      8.8000000000000043      47.519999999999996      42.240000000000002
   187   1      7.0400000000000054      45.759999999999998      45.759999999999998
   188   1      7.0400000000000054      47.519999999999996      47.519999999999996
   189   1      8.8000000000000043      45.759999999999998      47.519999999999996
   190   1      8.8000000000000043      47.519999999999996      45.759999999999998
   191   1      7.0400000000000054      45.759999999999998      49.279999999999994
   192   1      7.0400000000000054      47.519999999999996      51.039999999999992
   193   1      8.8000000000000043      45.759999999999998      51.039999999999992
   194   1      8.8000000000000043      47.519999999999996      49.279999999999994
   195   1      7.0400000000000054      45.759999999999998      52.800000000000004
   196   1      7.0400000000000054      47.519999999999996      54.560000000000002
   197   1      8.8000000000000043      45.759999999999998      54.560000000000002
   198   1      8.8000000000000043      47.519999999999996      52.800000000000004
   199   1      7.0400000000000054      45.759999999999998                   56.32
   200   1      7.0400000000000054      47.519999999999996      58.079999999999998
   201   1      8.8000000000000043      45.759999999999998      58.079999999999998
   202   1      8.8000000000000043      47.519999999999996                   56.32
   203   1      7.0400000000000054      45.759999999999998      59.839999999999996
   204   1      7.0400000000000054      47.519999999999996      61.600000000000001
   205   1      8.8000000000000043      45.759999999999998      61.600000000000001
   206   1      8.8000000000000043      47.519999999999996      59.839999999999996
   207   1      8.8000000000000043      47.519999999999996      63.359999999999999
   208   1      7.0400000000000054      51.039999999999992      36.959999999999994
   209   1      8.8000000000000043      49.279999999999994      36.959999999999994
   210   1      8.8000000000000043      51.039999999999992      35.199999999999996
   211   1      7.0400000000000054      49.279999999999994      38.719999999999999
   212   1      7.0400000000000054      51.039999999999992      40.480000000000004
   213   1      8.8000000000000043      49.279999999999994      40.480000000000004
   214   1      8.8000000000000043      51.039999999999992      38.719999999999999
   215   1      7.0400000000000054      49.279999999999994      42.240000000000002
   216   1      7.0400000000000054      51.039999999999992      43.999999999999993
   217   1      8.8000000000000043      49.279999999999994      43.999999999999993
   218   1      8.8000000000000043      51.039999999999992      42.240000000000002
   219   1      7.0400000000000054      49.279999999999994      45.759999999999998
   220   1      7.0400000000000054      51.039999999999992      47.519999999999996
   221   1      8.8000000000000043      49.279999999999994      47.519999999999996
   222   1      8.8000000000000043      51.039999999999992      45.759999999999998
   223   1      7.0400000000000054      49.279999999999994      49.279999999999994
   224   1      7.0400000000000054      51.039999999999992      51.039999999999992
   225   1      8.8000000000000043      49.279999999999994      51.039999999999992
   226   1      8.8000000000000043      51.039999999999992      49.279999999999994
   227   1      7.0400000000000054      49.279999999999994      52.800000000000004
   228   1      7.0400000000000054      51.039999999999992      54.560000000000002
   229   1      8.8000000000000043      49.279999999999994      54.560000000000002
   230   1      8.8000000000000043      51.039999999999992      52.800000000000004
   231   1      7.0400000000000054      49.279999999999994                   56.32
   232   1      7.0400000000000054      51.039999999999992      58.079999999999998
   233   1      8.8000000000000043      49.279999999999994      58.079999999999998
   234   1      8.8000000000000043      51.039999999999992                   56.32
   235   1      7.0400000000000054      49.279999999999994      59.839999999999996
   236   1      7.0400000000000054      51.039999999999992      61.600000000000001
   237   1      8.8000000000000043      49.279999999999994      61.600000000000001
   238   1      8.8000000000000043      51.039999999999992      59.839999999999996
   239   1      8.8000000000000043      51.039999999999992      63.359999999999999
   240   1      8.8000000000000043      52.800000000000004      36.959999999999994
   241   1      7.0400000000000054      52.800000000000004      38.719999999999999
   242   1      7.0400000000000054      54.560000000000002      40.480000000000004
   243   1      8.8000000000000043      52.800000000000004      40.480000000000004
   244   1      8.8000000000000043      54.560000000000002      38.719999999999999
   245   1      7.0400000000000054      52.800000000000004      42.240000000000002
   246   1      7.0400000000000054      54.560000000000002      43.999999999999993
   247   1      8.8000000000000043      52.800000000000004      43.999999999999993
   248   1      8.8000000000000043      54.560000000000002      42.240000000000002
   249   1      7.0400000000000054      52.800000000000004      45.759999999999998
   250   1      7.0400000000000054      54.560000000000002      47.519999999999996
   251   1      8.8000000000000043      52.800000000000004      47.519999999999996
   252   1      8.8000000000000043      54.560000000000002      45.759999999999998
   253   1      7.0400000000000054      52.800000000000004      49.279999999999994
   254   1      7.0400000000000054      54.560000000000002      51.039999999999992
   255   1      8.8000000000000043      52.800000000000004      51.039999999999992
   256   1      8.8000000000000043      54.560000000000002      49.279999999999994
   257   1      7.0400000000000054      52.800000000000004      52.800000000000004
   258   1      7.0400000000000054      54.560000000000002      54.560000000000002
   259   1      8.8000000000000043      52.800000000000004      54.560000000000002
   260   1      8.8000000000000043      54.560000000000002      52.800000000000004
   261   1      7.0400000000000054      52.800000000000004                   56.32
   262   1      7.0400000000000054      54.560000000000002      58.079999999999998
   263   1      8.8000000000000043      52.800000000000004      58.079999999999998
   264   1      8.8000000000000043      54.560000000000002                   56.32
   265   1      7.0400000000000054      52.800000000000004      59.839999999999996
   266   1      8.8000000000000043      52.800000000000004      61.600000000000001
   267   1      8.8000000000000043      54.560000000000002      59.839999999999996
   268   1      8.8000000000000043                   56.32      36.959999999999994
   269   1      7.0400000000000054                   56.32      38.719999999999999
   270   1      7.0400000000000054      58.079999999999998      40.480000000000004
   271   1      8.8000000000000043                   56.32      40.480000000000004
   272   1      8.8000000000000043      58.079999999999998      38.719999999999999
   273   1      7.0400000000000054                   56.32      42.240000000000002
   274   1      7.0400000000000054      58.079999999999998      43.999999999999993
   275   1      8.8000000000000043                   56.32      43.999999999999993
   276   1      8.8000000000000043      58.079999999999998      42.240000000000002
   277   1      7.0400000000000054                   56.32      45.759999999999998
   278   1      7.0400000000000054      58.079999999999998      47.519999999999996
   279   1      8.8000000000000043                   56.32      47.519999999999996
   280   1      8.8000000000000043      58.079999999999998      45.759999999999998
   281   1      7.0400000000000054                   56.32      49.279999999999994
   282   1      7.0400000000000054      58.079999999999998      51.039999999999992
   283   1      8.8000000000000043                   56.32      51.039999999999992
   284   1      8.8000000000000043      58.079999999999998      49.279999999999994
   285   1      7.0400000000000054                   56.32      52.800000000000004
   286   1      7.0400000000000054      58.079999999999998      54.560000000000002
   287   1      8.8000000000000043                   56.32      54.560000000000002
   288   1      8.8000000000000043      58.079999999999998      52.800000000000004
   289   1      7.0400000000000054                   56.32                   56.32
   290   1      7.0400000000000054      58.079999999999998      58.079999999999998
   291   1      8.8000000000000043                   56.32      58.079999999999998
   292   1      8.8000000000000043      58.079999999999998                   56.32
   293   1      7.0400000000000054                   56.32      59.839999999999996
   294   1      8.8000000000000043                   56.32      61.600000000000001
   295   1      8.8000000000000043      58.079999999999998      59.839999999999996
   296   1      8.8000000000000043      59.839999999999996      40.480000000000004
   297   1      7.0400000000000054      59.839999999999996      42.240000000000002
   298   1      8.8000000000000043      59.839999999999996      43.999999999999993
   299   1      8.8000000000000043      61.600000000000001      42.240000000000002
   300   1      7.0400000000000054      59.839999999999996      45.759999999999998
   301   1      7.0400000000000054      61.600000000000001      47.519999999999996
   302   1      8.8000000000000043      59.839999999999996      47.519999999999996
   303   1      8.8000000000000043      61.600000000000001      45.759999999999998
   304   1      7.0400000000000054      59.839999999999996      49.279999999999994
   305   1      7.0400000000000054      61.600000000000001      51.039999999999992
   306   1      8.8000000000000043      59.839999999999996      51.039999999999992
   307   1      8.8000000000000043      61.600000000000001      49.279999999999994
   308   1      7.0400000000000054      59.839999999999996      52.800000000000004
   309   1      8.8000000000000043      59.839999999999996      54.560000000000002
   310   1      8.8000000000000043      61.600000000000001      52.800000000000004
   311   1      7.0400000000000054      59.839999999999996                   56.32
   312   1      8.8000000000000043      59.839999999999996      58.079999999999998
   313   1      8.8000000000000043      61.600000000000001                   56.32
   314   1      8.8000000000000043      63.359999999999999      47.519999999999996
   315   1      8.8000000000000043      63.359999999999999      51.039999999999992
   316   1      12.320000000000006      29.919999999999998      49.279999999999994
   317   1      12.320000000000006      33.440000000000005      38.719999999999999
   318   1      10.560000000000002      33.440000000000005      43.999999999999993
   319   1      12.320000000000006      31.680000000000003      43.999999999999993
   320   1      12.320000000000006      33.440000000000005      42.240000000000002
   321   1      10.560000000000002      33.440000000000005      47.519999999999996
   322   1      12.320000000000006      31.680000000000003      47.519999999999996
   323   1      12.320000000000006      33.440000000000005      45.759999999999998
   324   1      10.560000000000002      31.680000000000003      49.279999999999994
   325   1      10.560000000000002      33.440000000000005      51.039999999999992
   326   1      12.320000000000006      31.680000000000003      51.039999999999992
   327   1      12.320000000000006      33.440000000000005      49.279999999999994
   328   1      10.560000000000002      33.440000000000005      54.560000000000002
   329   1      12.320000000000006      31.680000000000003      54.560000000000002
   330   1      12.320000000000006      33.440000000000005      52.800000000000004
   331   1      12.320000000000006      33.440000000000005                   56.32
   332   1      12.320000000000006      33.440000000000005      59.839999999999996
   333   1      10.560000000000002      36.959999999999994      36.959999999999994
   334   1      12.320000000000006      35.199999999999996      36.959999999999994
   335   1      12.320000000000006      36.959999999999994      35.199999999999996
   336   1      10.560000000000002      35.199999999999996      38.719999999999999
   337   1      10.560000000000002      36.959999999999994      40.480000000000004
   338   1      12.320000000000006      35.199999999999996      40.480000000000004
   339   1      12.320000000000006      36.959999999999994      38.719999999999999
   340   1      10.560000000000002      35.199999999999996      42.240000000000002
   341   1      10.560000000000002      36.959999999999994      43.999999999999993
   342   1      12.320000000000006      35.199999999999996      43.999999999999993
   343   1      12.320000000000006      36.959999999999994      42.240000000000002
   344   1      10.560000000000002      35.199999999999996      45.759999999999998
   345   1      10.560000000000002      36.959999999999994      47.519999999999996
   346   1      12.320000000000006      35.199999999999996      47.519999999999996
   347   1      12.320000000000006      36.959999999999994      45.759999999999998
   348   1      10.560000000000002      35.199999999999996      49.279999999999994
   349   1      10.560000000000002      36.959999999999994      51.039999999999992
   350   1      12.320000000000006      35.199999999999996      51.039999999999992
   351   1      12.320000000000006      36.959999999999994      49.279999999999994
   352   1      10.560000000000002      35.199999999999996      52.800000000000004
   353   1      10.560000000000002      36.959999999999994      54.560000000000002
   354   1      12.320000000000006      35.199999999999996      54.560000000000002
   355   1      12.320000000000006      36.959999999999994      52.800000000000004
   356   1      10.560000000000002      35.199999999999996                   56.32
   357   1      10.560000000000002      36.959999999999994      58.079999999999998
   358   1      12.320000000000006      35.199999999999996      58.079999999999998