model_files/Co/Co_3000/Co_510/data.Co_510_hcp_2991 (written by ASE) 

2991 	 atoms 
1  atom types
0.0                      27  xlo xhi
0.0                      27  ylo yhi
0.0                      27  zlo zhi


Atoms 

     1   1      1.2550000000000026      5.0200000000000014      6.2750000000000021
     2   1      1.2550000000000026      6.2750000000000021      5.0200000000000014
     3   1      1.2550000000000026      5.0200000000000014      8.7850000000000001
     4   1      1.2550000000000026      6.2750000000000021      7.5300000000000002
     5   1      1.2550000000000026      5.0200000000000014      11.295000000000002
     6   1      1.2550000000000026      6.2750000000000021      10.040000000000001
     7   1      1.2550000000000026      5.0200000000000014      13.804999999999998
     8   1      1.2550000000000026      6.2750000000000021      12.549999999999999
     9   1      1.2550000000000026      5.0200000000000014      16.315000000000001
    10   1      1.2550000000000026      6.2750000000000021                   15.06
    11   1      1.2550000000000026      5.0200000000000014      18.824999999999999
    12   1      1.2550000000000026      6.2750000000000021                   17.57
    13   1      1.2550000000000026      6.2750000000000021      20.079999999999998
    14   1      1.2550000000000026      7.5300000000000002      6.2750000000000021
    15   1      1.2550000000000026      8.7850000000000001      5.0200000000000014
    16   1      1.2550000000000026      7.5300000000000002      8.7850000000000001
    17   1      1.2550000000000026      8.7850000000000001      7.5300000000000002
    18   1      1.2550000000000026      7.5300000000000002      11.295000000000002
    19   1      1.2550000000000026      8.7850000000000001      10.040000000000001
    20   1      1.2550000000000026      7.5300000000000002      13.804999999999998
    21   1      1.2550000000000026      8.7850000000000001      12.549999999999999
    22   1      1.2550000000000026      7.5300000000000002      16.315000000000001
    23   1      1.2550000000000026      8.7850000000000001                   15.06
    24   1      1.2550000000000026      7.5300000000000002      18.824999999999999
    25   1      1.2550000000000026      8.7850000000000001                   17.57
    26   1      1.2550000000000026      8.7850000000000001      20.079999999999998
    27   1      1.2550000000000026      10.040000000000001      6.2750000000000021
    28   1      1.2550000000000026      11.295000000000002      5.0200000000000014
    29   1      1.2550000000000026      10.040000000000001      8.7850000000000001
    30   1      1.2550000000000026      11.295000000000002      7.5300000000000002
    31   1  1.7763568394002505e-15      11.295000000000002      11.295000000000002
    32   1      1.2550000000000026      10.040000000000001      11.295000000000002
    33   1      1.2550000000000026      11.295000000000002      10.040000000000001
    34   1  1.7763568394002505e-15      11.295000000000002      13.804999999999998
    35   1      1.2550000000000026      10.040000000000001      13.804999999999998
    36   1      1.2550000000000026      11.295000000000002      12.549999999999999
    37   1      1.2550000000000026      10.040000000000001      16.315000000000001
    38   1      1.2550000000000026      11.295000000000002                   15.06
    39   1      1.2550000000000026      10.040000000000001      18.824999999999999
    40   1      1.2550000000000026      11.295000000000002                   17.57
    41   1      1.2550000000000026      11.295000000000002      20.079999999999998
    42   1      1.2550000000000026      12.549999999999999      6.2750000000000021
    43   1      1.2550000000000026      13.804999999999998      5.0200000000000014
    44   1      1.2550000000000026      12.549999999999999      8.7850000000000001
    45   1      1.2550000000000026      13.804999999999998      7.5300000000000002
    46   1  1.7763568394002505e-15      13.804999999999998      11.295000000000002
    47   1      1.2550000000000026      12.549999999999999      11.295000000000002
    48   1      1.2550000000000026      13.804999999999998      10.040000000000001
    49   1  1.7763568394002505e-15      12.549999999999999      12.549999999999999
    50   1  1.7763568394002505e-15      13.804999999999998      13.804999999999998
    51   1      1.2550000000000026      12.549999999999999      13.804999999999998
    52   1      1.2550000000000026      13.804999999999998      12.549999999999999
    53   1      1.2550000000000026      12.549999999999999      16.315000000000001
    54   1      1.2550000000000026      13.804999999999998                   15.06
    55   1      1.2550000000000026      12.549999999999999      18.824999999999999
    56   1      1.2550000000000026      13.804999999999998                   17.57
    57   1      1.2550000000000026      13.804999999999998      20.079999999999998
    58   1      1.2550000000000026                   15.06      6.2750000000000021
    59   1      1.2550000000000026      16.315000000000001      5.0200000000000014
    60   1      1.2550000000000026                   15.06      8.7850000000000001
    61   1      1.2550000000000026      16.315000000000001      7.5300000000000002
    62   1      1.2550000000000026                   15.06      11.295000000000002
    63   1      1.2550000000000026      16.315000000000001      10.040000000000001
    64   1      1.2550000000000026                   15.06      13.804999999999998
    65   1      1.2550000000000026      16.315000000000001      12.549999999999999
    66   1      1.2550000000000026                   15.06      16.315000000000001
    67   1      1.2550000000000026      16.315000000000001                   15.06
    68   1      1.2550000000000026                   15.06      18.824999999999999
    69   1      1.2550000000000026      16.315000000000001                   17.57
    70   1      1.2550000000000026      16.315000000000001      20.079999999999998
    71   1      1.2550000000000026                   17.57      6.2750000000000021
    72   1      1.2550000000000026      18.824999999999999      5.0200000000000014
    73   1      1.2550000000000026                   17.57      8.7850000000000001
    74   1      1.2550000000000026      18.824999999999999      7.5300000000000002
    75   1      1.2550000000000026                   17.57      11.295000000000002
    76   1      1.2550000000000026      18.824999999999999      10.040000000000001
    77   1      1.2550000000000026                   17.57      13.804999999999998
    78   1      1.2550000000000026      18.824999999999999      12.549999999999999
    79   1      1.2550000000000026                   17.57      16.315000000000001
    80   1      1.2550000000000026      18.824999999999999                   15.06
    81   1      1.2550000000000026                   17.57      18.824999999999999
    82   1      1.2550000000000026      18.824999999999999                   17.57
    83   1      1.2550000000000026      18.824999999999999      20.079999999999998
    84   1      1.2550000000000026      20.079999999999998      6.2750000000000021
    85   1      1.2550000000000026      20.079999999999998      8.7850000000000001
    86   1      1.2550000000000026      20.079999999999998      11.295000000000002
    87   1      1.2550000000000026      20.079999999999998      13.804999999999998
    88   1      1.2550000000000026      20.079999999999998      16.315000000000001
    89   1      1.2550000000000026      20.079999999999998      18.824999999999999
    90   1      2.5100000000000011      2.5100000000000011      2.5100000000000011
    91   1      2.5100000000000011      3.7650000000000001      3.7650000000000001
    92   1      3.7650000000000001      2.5100000000000011      3.7650000000000001
    93   1      3.7650000000000001      3.7650000000000001      2.5100000000000011
    94   1      2.5100000000000011      2.5100000000000011      5.0200000000000014
    95   1      2.5100000000000011      3.7650000000000001      6.2750000000000021
    96   1      3.7650000000000001      2.5100000000000011      6.2750000000000021
    97   1      3.7650000000000001      3.7650000000000001      5.0200000000000014
    98   1      2.5100000000000011      2.5100000000000011      7.5300000000000002
    99   1      2.5100000000000011      3.7650000000000001      8.7850000000000001
   100   1      3.7650000000000001      2.5100000000000011      8.7850000000000001
   101   1      3.7650000000000001      3.7650000000000001      7.5300000000000002
   102   1      2.5100000000000011      2.5100000000000011      10.040000000000001
   103   1      2.5100000000000011      3.7650000000000001      11.295000000000002
   104   1      3.7650000000000001      2.5100000000000011      11.295000000000002
   105   1      3.7650000000000001      3.7650000000000001      10.040000000000001
   106   1      2.5100000000000011      2.5100000000000011      12.549999999999999
   107   1      2.5100000000000011      3.7650000000000001      13.804999999999998
   108   1      3.7650000000000001      2.5100000000000011      13.804999999999998
   109   1      3.7650000000000001      3.7650000000000001      12.549999999999999
   110   1      2.5100000000000011      2.5100000000000011                   15.06
   111   1      2.5100000000000011      3.7650000000000001      16.315000000000001
   112   1      3.7650000000000001      2.5100000000000011      16.315000000000001
   113   1      3.7650000000000001      3.7650000000000001                   15.06
   114   1      2.5100000000000011      2.5100000000000011                   17.57
   115   1      2.5100000000000011      3.7650000000000001      18.824999999999999
   116   1      3.7650000000000001      2.5100000000000011      18.824999999999999
   117   1      3.7650000000000001      3.7650000000000001                   17.57
   118   1      2.5100000000000011      2.5100000000000011      20.079999999999998
   119   1      2.5100000000000011      3.7650000000000001      21.334999999999994
   120   1      3.7650000000000001      2.5100000000000011      21.334999999999994
   121   1      3.7650000000000001      3.7650000000000001      20.079999999999998
   122   1      2.5100000000000011      2.5100000000000011                   22.59
   123   1      3.7650000000000001      3.7650000000000001                   22.59
   124   1      2.5100000000000011      5.0200000000000014      2.5100000000000011
   125   1      2.5100000000000011      6.2750000000000021      3.7650000000000001
   126   1      3.7650000000000001      5.0200000000000014      3.7650000000000001
   127   1      3.7650000000000001      6.2750000000000021      2.5100000000000011
   128   1      2.5100000000000011      5.0200000000000014      5.0200000000000014
   129   1      2.5100000000000011      6.2750000000000021      6.2750000000000021
   130   1      3.7650000000000001      5.0200000000000014      6.2750000000000021
   131   1      3.7650000000000001      6.2750000000000021      5.0200000000000014
   132   1      2.5100000000000011      5.0200000000000014      7.5300000000000002
   133   1      2.5100000000000011      6.2750000000000021      8.7850000000000001
   134   1      3.7650000000000001      5.0200000000000014      8.7850000000000001
   135   1      3.7650000000000001      6.2750000000000021      7.5300000000000002
   136   1      2.5100000000000011      5.0200000000000014      10.040000000000001
   137   1      2.5100000000000011      6.2750000000000021      11.295000000000002
   138   1      3.7650000000000001      5.0200000000000014      11.295000000000002
   139   1      3.7650000000000001      6.2750000000000021      10.040000000000001
   140   1      2.5100000000000011      5.0200000000000014      12.549999999999999
   141   1      2.5100000000000011      6.2750000000000021      13.804999999999998
   142   1      3.7650000000000001      5.0200000000000014      13.804999999999998
   143   1      3.7650000000000001      6.2750000000000021      12.549999999999999
   144   1      2.5100000000000011      5.0200000000000014                   15.06
   145   1      2.5100000000000011      6.2750000000000021      16.315000000000001
   146   1      3.7650000000000001      5.0200000000000014      16.315000000000001
   147   1      3.7650000000000001      6.2750000000000021                   15.06
   148   1      2.5100000000000011      5.0200000000000014                   17.57
   149   1      2.5100000000000011      6.2750000000000021      18.824999999999999
   150   1      3.7650000000000001      5.0200000000000014      18.824999999999999
   151   1      3.7650000000000001      6.2750000000000021                   17.57
   152   1      2.5100000000000011      5.0200000000000014      20.079999999999998
   153   1      2.5100000000000011      6.2750000000000021      21.334999999999994
   154   1      3.7650000000000001      5.0200000000000014      21.334999999999994
   155   1      3.7650000000000001      6.2750000000000021      20.079999999999998
   156   1      2.5100000000000011      5.0200000000000014                   22.59
   157   1      3.7650000000000001      6.2750000000000021                   22.59
   158   1      2.5100000000000011      7.5300000000000002      2.5100000000000011
   159   1      2.5100000000000011      8.7850000000000001      3.7650000000000001
   160   1      3.7650000000000001      7.5300000000000002      3.7650000000000001
   161   1      3.7650000000000001      8.7850000000000001      2.5100000000000011
   162   1      2.5100000000000011      7.5300000000000002      5.0200000000000014
   163   1      2.5100000000000011      8.7850000000000001      6.2750000000000021
   164   1      3.7650000000000001      7.5300000000000002      6.2750000000000021
   165   1      3.7650000000000001      8.7850000000000001      5.0200000000000014
   166   1      2.5100000000000011      7.5300000000000002      7.5300000000000002
   167   1      2.5100000000000011      8.7850000000000001      8.7850000000000001
   168   1      3.7650000000000001      7.5300000000000002      8.7850000000000001
   169   1      3.7650000000000001      8.7850000000000001      7.5300000000000002
   170   1      2.5100000000000011      7.5300000000000002      10.040000000000001
   171   1      2.5100000000000011      8.7850000000000001      11.295000000000002
   172   1      3.7650000000000001      7.5300000000000002      11.295000000000002
   173   1      3.7650000000000001      8.7850000000000001      10.040000000000001
   174   1      2.5100000000000011      7.5300000000000002      12.549999999999999
   175   1      2.5100000000000011      8.7850000000000001      13.804999999999998
   176   1      3.7650000000000001      7.5300000000000002      13.804999999999998
   177   1      3.7650000000000001      8.7850000000000001      12.549999999999999
   178   1      2.5100000000000011      7.5300000000000002                   15.06
   179   1      2.5100000000000011      8.7850000000000001      16.315000000000001
   180   1      3.7650000000000001      7.5300000000000002      16.315000000000001
   181   1      3.7650000000000001      8.7850000000000001                   15.06
   182   1      2.5100000000000011      7.5300000000000002                   17.57
   183   1      2.5100000000000011      8.7850000000000001      18.824999999999999
   184   1      3.7650000000000001      7.5300000000000002      18.824999999999999
   185   1      3.7650000000000001      8.7850000000000001                   17.57
   186   1      2.5100000000000011      7.5300000000000002      20.079999999999998
   187   1      2.5100000000000011      8.7850000000000001      21.334999999999994
   188   1      3.7650000000000001      7.5300000000000002      21.334999999999994
   189   1      3.7650000000000001      8.7850000000000001      20.079999999999998
   190   1      2.5100000000000011      7.5300000000000002                   22.59
   191   1      3.7650000000000001      8.7850000000000001                   22.59
   192   1      2.5100000000000011      10.040000000000001      2.5100000000000011
   193   1      2.5100000000000011      11.295000000000002      3.7650000000000001
   194   1      3.7650000000000001      10.040000000000001      3.7650000000000001
   195   1      3.7650000000000001      11.295000000000002      2.5100000000000011
   196   1      2.5100000000000011      10.040000000000001      5.0200000000000014
   197   1      2.5100000000000011      11.295000000000002      6.2750000000000021
   198   1      3.7650000000000001      10.040000000000001      6.2750000000000021
   199   1      3.7650000000000001      11.295000000000002      5.0200000000000014
   200   1      2.5100000000000011      10.040000000000001      7.5300000000000002
   201   1      2.5100000000000011      11.295000000000002      8.7850000000000001
   202   1      3.7650000000000001      10.040000000000001      8.7850000000000001
   203   1      3.7650000000000001      11.295000000000002      7.5300000000000002
   204   1      2.5100000000000011      10.040000000000001      10.040000000000001
   205   1      2.5100000000000011      11.295000000000002      11.295000000000002
   206   1      3.7650000000000001      10.040000000000001      11.295000000000002
   207   1      3.7650000000000001      11.295000000000002      10.040000000000001
   208   1      2.5100000000000011      10.040000000000001      12.549999999999999
   209   1      2.5100000000000011      11.295000000000002      13.804999999999998
   210   1      3.7650000000000001      10.040000000000001      13.804999999999998
   211   1      3.7650000000000001      11.295000000000002      12.549999999999999
   212   1      2.5100000000000011      10.040000000000001                   15.06
   213   1      2.5100000000000011      11.295000000000002      16.315000000000001
   214   1      3.7650000000000001      10.040000000000001      16.315000000000001
   215   1      3.7650000000000001      11.295000000000002                   15.06
   216   1      2.5100000000000011      10.040000000000001                   17.57
   217   1      2.5100000000000011      11.295000000000002      18.824999999999999
   218   1      3.7650000000000001      10.040000000000001      18.824999999999999
   219   1      3.7650000000000001      11.295000000000002                   17.57
   220   1      2.5100000000000011      10.040000000000001      20.079999999999998
   221   1      2.5100000000000011      11.295000000000002      21.334999999999994
   222   1      3.7650000000000001      10.040000000000001      21.334999999999994
   223   1      3.7650000000000001      11.295000000000002      20.079999999999998
   224   1      2.5100000000000011      10.040000000000001                   22.59
   225   1      3.7650000000000001      11.295000000000002                   22.59
   226   1      2.5100000000000011      12.549999999999999      2.5100000000000011
   227   1      2.5100000000000011      13.804999999999998      3.7650000000000001
   228   1      3.7650000000000001      12.549999999999999      3.7650000000000001
   229   1      3.7650000000000001      13.804999999999998      2.5100000000000011
   230   1      2.5100000000000011      12.549999999999999      5.0200000000000014
   231   1      2.5100000000000011      13.804999999999998      6.2750000000000021
   232   1      3.7650000000000001      12.549999999999999      6.2750000000000021
   233   1      3.7650000000000001      13.804999999999998      5.0200000000000014
   234   1      2.5100000000000011      12.549999999999999      7.5300000000000002
   235   1      2.5100000000000011      13.804999999999998      8.7850000000000001
   236   1      3.7650000000000001      12.549999999999999      8.7850000000000001
   237   1      3.7650000000000001      13.804999999999998      7.5300000000000002
   238   1      2.5100000000000011      12.549999999999999      10.040000000000001
   239   1      2.5100000000000011      13.804999999999998      11.295000000000002
   240   1      3.7650000000000001      12.549999999999999      11.295000000000002
   241   1      3.7650000000000001      13.804999999999998      10.040000000000001
   242   1      2.5100000000000011      12.549999999999999      12.549999999999999
   243   1      2.5100000000000011      13.804999999999998      13.804999999999998
   244   1      3.7650000000000001      12.549999999999999      13.804999999999998
   245   1      3.7650000000000001      13.804999999999998      12.549999999999999
   246   1      2.5100000000000011      12.549999999999999                   15.06
   247   1      2.5100000000000011      13.804999999999998      16.315000000000001
   248   1      3.7650000000000001      12.549999999999999      16.315000000000001
   249   1      3.7650000000000001      13.804999999999998                   15.06
   250   1      2.5100000000000011      12.549999999999999                   17.57
   251   1      2.5100000000000011      13.804999999999998      18.824999999999999
   252   1      3.7650000000000001      12.549999999999999      18.824999999999999
   253   1      3.7650000000000001      13.804999999999998                   17.57
   254   1      2.5100000000000011      12.549999999999999      20.079999999999998
   255   1      2.5100000000000011      13.804999999999998      21.334999999999994
   256   1      3.7650000000000001      12.549999999999999      21.334999999999994
   257   1      3.7650000000000001      13.804999999999998      20.079999999999998
   258   1      2.5100000000000011      12.549999999999999                   22.59
   259   1      3.7650000000000001      13.804999999999998                   22.59
   260   1      2.5100000000000011                   15.06      2.5100000000000011
   261   1      2.5100000000000011      16.315000000000001      3.7650000000000001
   262   1      3.7650000000000001                   15.06      3.7650000000000001
   263   1      3.7650000000000001      16.315000000000001      2.5100000000000011
   264   1      2.5100000000000011                   15.06      5.0200000000000014
   265   1      2.5100000000000011      16.315000000000001      6.2750000000000021
   266   1      3.7650000000000001                   15.06      6.2750000000000021
   267   1      3.7650000000000001      16.315000000000001      5.0200000000000014
   268   1      2.5100000000000011                   15.06      7.5300000000000002
   269   1      2.5100000000000011      16.315000000000001      8.7850000000000001
   270   1      3.7650000000000001                   15.06      8.7850000000000001
   271   1      3.7650000000000001      16.315000000000001      7.5300000000000002
   272   1      2.5100000000000011                   15.06      10.040000000000001
   273   1      2.5100000000000011      16.315000000000001      11.295000000000002
   274   1      3.7650000000000001                   15.06      11.295000000000002
   275   1      3.7650000000000001      16.315000000000001      10.040000000000001
   276   1      2.5100000000000011                   15.06      12.549999999999999
   277   1      2.5100000000000011      16.315000000000001      13.804999999999998
   278   1      3.7650000000000001                   15.06      13.804999999999998
   279   1      3.7650000000000001      16.315000000000001      12.549999999999999
   280   1      2.5100000000000011                   15.06                   15.06
   281   1      2.5100000000000011      16.315000000000001      16.315000000000001
   282   1      3.7650000000000001                   15.06      16.315000000000001
   283   1      3.7650000000000001      16.315000000000001                   15.06
   284   1      2.5100000000000011                   15.06                   17.57
   285   1      2.5100000000000011      16.315000000000001      18.824999999999999
   286   1      3.7650000000000001                   15.06      18.824999999999999
   287   1      3.7650000000000001      16.315000000000001                   17.57
   288   1      2.5100000000000011                   15.06      20.079999999999998
   289   1      2.5100000000000011      16.315000000000001      21.334999999999994
   290   1      3.7650000000000001                   15.06      21.334999999999994
   291   1      3.7650000000000001      16.315000000000001      20.079999999999998
   292   1      2.5100000000000011                   15.06                   22.59
   293   1      3.7650000000000001      16.315000000000001                   22.59
   294   1      2.5100000000000011                   17.57      2.5100000000000011
   295   1      2.5100000000000011      18.824999999999999      3.7650000000000001
   296   1      3.7650000000000001                   17.57      3.7650000000000001
   297   1      3.7650000000000001      18.824999999999999      2.5100000000000011
   298   1      2.5100000000000011                   17.57      5.0200000000000014
   299   1      2.5100000000000011      18.824999999999999      6.2750000000000021
   300   1      3.7650000000000001                   17.57      6.2750000000000021
   301   1      3.7650000000000001      18.824999999999999      5.0200000000000014
   302   1      2.5100000000000011                   17.57      7.5300000000000002
   303   1      2.5100000000000011      18.824999999999999      8.7850000000000001
   304   1      3.7650000000000001                   17.57      8.7850000000000001
   305   1      3.7650000000000001      18.824999999999999      7.5300000000000002
   306   1      2.5100000000000011                   17.57      10.040000000000001
   307   1      2.5100000000000011      18.824999999999999      11.295000000000002
   308   1      3.7650000000000001                   17.57      11.295000000000002
   309   1      3.7650000000000001      18.824999999999999      10.040000000000001
   310   1      2.5100000000000011                   17.57      12.549999999999999
   311   1      2.5100000000000011      18.824999999999999      13.804999999999998
   312   1      3.7650000000000001                   17.57      13.804999999999998
   313   1      3.7650000000000001      18.824999999999999      12.549999999999999
   314   1      2.5100000000000011                   17.57                   15.06
   315   1      2.5100000000000011      18.824999999999999      16.315000000000001
   316   1      3.7650000000000001                   17.57      16.315000000000001
   317   1      3.7650000000000001      18.824999999999999                   15.06
   318   1      2.5100000000000011                   17.57                   17.57
   319   1      2.5100000000000011      18.824999999999999      18.824999999999999
   320   1      3.7650000000000001                   17.57      18.824999999999999
   321   1      3.7650000000000001      18.824999999999999                   17.57
   322   1      2.5100000000000011                   17.57      20.079999999999998
   323   1      2.5100000000000011      18.824999999999999      21.334999999999994
   324   1      3.7650000000000001                   17.57      21.334999999999994
   325   1      3.7650000000000001      18.824999999999999      20.079999999999998
   326   1      2.5100000000000011                   17.57                   22.59
   327   1      3.7650000000000001      18.824999999999999                   22.59
   328   1      2.5100000000000011      20.079999999999998      2.5100000000000011
   329   1      2.5100000000000011      21.334999999999994      3.7650000000000001
   330   1      3.7650000000000001      20.079999999999998      3.7650000000000001
   331   1      3.7650000000000001      21.334999999999994      2.5100000000000011
   332   1      2.5100000000000011      20.079999999999998      5.0200000000000014
   333   1      2.5100000000000011      21.334999999999994      6.2750000000000021
   334   1      3.7650000000000001      20.079999999999998      6.2750000000000021
   335   1      3.7650000000000001      21.334999999999994      5.0200000000000014
   336   1      2.5100000000000011      20.079999999999998      7.5300000000000002
   337   1      2.5100000000000011      21.334999999999994      8.7850000000000001
   338   1      3.7650000000000001      20.079999999999998      8.7850000000000001
   339   1      3.7650000000000001      21.334999999999994      7.5300000000000002
   340   1      2.5100000000000011      20.079999999999998      10.040000000000001
   341   1      2.5100000000000011      21.334999999999994      11.295000000000002
   342   1      3.7650000000000001      20.079999999999998      11.295000000000002
   343   1      3.7650000000000001      21.334999999999994      10.040000000000001
   344   1      2.5100000000000011      20.079999999999998      12.549999999999999
   345   1      2.5100000000000011      21.334999999999994      13.804999999999998
   346   1      3.7650000000000001      20.079999999999998      13.804999999999998
   347   1      3.7650000000000001      21.334999999999994      12.549999999999999
   348   1      2.5100000000000011      20.079999999999998                   15.06
   349   1      2.5100000000000011      21.334999999999994      16.315000000000001
   350   1      3.7650000000000001      20.079999999999998      16.315000000000001
   351   1      3.7650000000000001      21.334999999999994                   15.06
   352   1      2.5100000000000011      20.079999999999998                   17.57
   353   1      2.5100000000000011      21.334999999999994      18.824999999999999
   354   1      3.7650000000000001      20.079999999999998      18.824999999999999
   355   1      3.7650000000000001      21.334999999999994                   17.57
   356   1      2.5100000000000011      20.079999999999998      20.079999999999998
   357   1      2.5100000000000011      21.334999999999994      21.334999999999994
   358   1      3.7650000000000001      20.079999999999998      21.334999999999994