model_files/PtFe/PtFe_30000/PtFe_320/PtFe_320_fcc_29879_temp.data (written by ASE) 

29879 	 atoms 
2  atom types
0.0                      99  xlo xhi
0.0                      99  ylo yhi
0.0                      99  zlo zhi


Atoms 

     1   1      1.8799999999999957      43.239999999999995       45.11999999999999
     2   1      1.8799999999999957      43.239999999999995      48.880000000000003
     3   1      1.8799999999999957      43.239999999999995      52.640000000000001
     4   1      1.8799999999999957       45.11999999999999      43.239999999999995
     5   1      98.999999999999986       45.11999999999999       45.11999999999999
     6   1      98.999999999999986      46.999999999999993      46.999999999999993
     7   1      1.8799999999999957       45.11999999999999      46.999999999999993
     8   1      1.8799999999999957      46.999999999999993       45.11999999999999
     9   1      98.999999999999986       45.11999999999999      48.880000000000003
    10   1      98.999999999999986      46.999999999999993      50.759999999999998
    11   1      1.8799999999999957       45.11999999999999      50.759999999999998
    12   1      1.8799999999999957      46.999999999999993      48.880000000000003
    13   1      98.999999999999986       45.11999999999999      52.640000000000001
    14   1      1.8799999999999957       45.11999999999999      54.519999999999996
    15   1      1.8799999999999957      46.999999999999993      52.640000000000001
    16   1      1.8799999999999957      48.880000000000003      43.239999999999995
    17   1      98.999999999999986      48.880000000000003       45.11999999999999
    18   1      98.999999999999986      50.759999999999998      46.999999999999993
    19   1      1.8799999999999957      48.880000000000003      46.999999999999993
    20   1      1.8799999999999957      50.759999999999998       45.11999999999999
    21   1      98.999999999999986      48.880000000000003      48.880000000000003
    22   1      98.999999999999986      50.759999999999998      50.759999999999998
    23   1      1.8799999999999957      48.880000000000003      50.759999999999998
    24   1      1.8799999999999957      50.759999999999998      48.880000000000003
    25   1      98.999999999999986      48.880000000000003      52.640000000000001
    26   1      1.8799999999999957      48.880000000000003      54.519999999999996
    27   1      1.8799999999999957      50.759999999999998      52.640000000000001
    28   1      1.8799999999999957      52.640000000000001      43.239999999999995
    29   1      98.999999999999986      52.640000000000001       45.11999999999999
    30   1      1.8799999999999957      52.640000000000001      46.999999999999993
    31   1      1.8799999999999957      54.519999999999996       45.11999999999999
    32   1      98.999999999999986      52.640000000000001      48.880000000000003
    33   1      1.8799999999999957      52.640000000000001      50.759999999999998
    34   1      1.8799999999999957      54.519999999999996      48.880000000000003
    35   1      98.999999999999986      52.640000000000001      52.640000000000001
    36   1      1.8799999999999957      52.640000000000001      54.519999999999996
    37   1      1.8799999999999957      54.519999999999996      52.640000000000001
    38   1      3.7599999999999913      39.480000000000004      39.480000000000004
    39   1      5.6399999999999935      37.599999999999994      39.480000000000004
    40   1      5.6399999999999935      39.480000000000004      37.599999999999994
    41   1      3.7599999999999913      39.480000000000004      43.239999999999995
    42   1      5.6399999999999935      37.599999999999994      43.239999999999995
    43   1      5.6399999999999935      39.480000000000004      41.359999999999999
    44   1      3.7599999999999913      39.480000000000004      46.999999999999993
    45   1      5.6399999999999935      37.599999999999994      46.999999999999993
    46   1      5.6399999999999935      39.480000000000004       45.11999999999999
    47   1      3.7599999999999913      39.480000000000004      50.759999999999998
    48   1      5.6399999999999935      37.599999999999994      50.759999999999998
    49   1      5.6399999999999935      39.480000000000004      48.880000000000003
    50   1      3.7599999999999913      39.480000000000004      54.519999999999996
    51   1      5.6399999999999935      37.599999999999994      54.519999999999996
    52   1      5.6399999999999935      39.480000000000004      52.640000000000001
    53   1      3.7599999999999913      39.480000000000004      58.280000000000001
    54   1      5.6399999999999935      37.599999999999994      58.280000000000001
    55   1      5.6399999999999935      39.480000000000004      56.399999999999999
    56   1      5.6399999999999935      39.480000000000004      60.159999999999989
    57   1      3.7599999999999913      43.239999999999995      39.480000000000004
    58   1      5.6399999999999935      41.359999999999999      39.480000000000004
    59   1      5.6399999999999935      43.239999999999995      37.599999999999994
    60   1      3.7599999999999913      41.359999999999999      41.359999999999999
    61   1      3.7599999999999913      43.239999999999995      43.239999999999995
    62   1      5.6399999999999935      41.359999999999999      43.239999999999995
    63   1      5.6399999999999935      43.239999999999995      41.359999999999999
    64   1      3.7599999999999913      41.359999999999999       45.11999999999999
    65   1      3.7599999999999913      43.239999999999995      46.999999999999993
    66   1      5.6399999999999935      41.359999999999999      46.999999999999993
    67   1      5.6399999999999935      43.239999999999995       45.11999999999999
    68   1      3.7599999999999913      41.359999999999999      48.880000000000003
    69   1      3.7599999999999913      43.239999999999995      50.759999999999998
    70   1      5.6399999999999935      41.359999999999999      50.759999999999998
    71   1      5.6399999999999935      43.239999999999995      48.880000000000003
    72   1      3.7599999999999913      41.359999999999999      52.640000000000001
    73   1      3.7599999999999913      43.239999999999995      54.519999999999996
    74   1      5.6399999999999935      41.359999999999999      54.519999999999996
    75   1      5.6399999999999935      43.239999999999995      52.640000000000001
    76   1      3.7599999999999913      41.359999999999999      56.399999999999999
    77   1      3.7599999999999913      43.239999999999995      58.280000000000001
    78   1      5.6399999999999935      41.359999999999999      58.280000000000001
    79   1      5.6399999999999935      43.239999999999995      56.399999999999999
    80   1      5.6399999999999935      43.239999999999995      60.159999999999989
    81   1      3.7599999999999913      46.999999999999993      39.480000000000004
    82   1      5.6399999999999935       45.11999999999999      39.480000000000004
    83   1      5.6399999999999935      46.999999999999993      37.599999999999994
    84   1      3.7599999999999913       45.11999999999999      41.359999999999999
    85   1      3.7599999999999913      46.999999999999993      43.239999999999995
    86   1      5.6399999999999935       45.11999999999999      43.239999999999995
    87   1      5.6399999999999935      46.999999999999993      41.359999999999999
    88   1      3.7599999999999913       45.11999999999999       45.11999999999999
    89   1      3.7599999999999913      46.999999999999993      46.999999999999993
    90   1      5.6399999999999935       45.11999999999999      46.999999999999993
    91   1      5.6399999999999935      46.999999999999993       45.11999999999999
    92   1      3.7599999999999913       45.11999999999999      48.880000000000003
    93   1      3.7599999999999913      46.999999999999993      50.759999999999998
    94   1      5.6399999999999935       45.11999999999999      50.759999999999998
    95   1      5.6399999999999935      46.999999999999993      48.880000000000003
    96   1      3.7599999999999913       45.11999999999999      52.640000000000001
    97   1      3.7599999999999913      46.999999999999993      54.519999999999996
    98   1      5.6399999999999935       45.11999999999999      54.519999999999996
    99   1      5.6399999999999935      46.999999999999993      52.640000000000001
   100   1      3.7599999999999913       45.11999999999999      56.399999999999999
   101   1      3.7599999999999913      46.999999999999993      58.280000000000001
   102   1      5.6399999999999935       45.11999999999999      58.280000000000001
   103   1      5.6399999999999935      46.999999999999993      56.399999999999999
   104   1      5.6399999999999935      46.999999999999993      60.159999999999989
   105   1      3.7599999999999913      50.759999999999998      39.480000000000004
   106   1      5.6399999999999935      48.880000000000003      39.480000000000004
   107   1      5.6399999999999935      50.759999999999998      37.599999999999994
   108   1      3.7599999999999913      48.880000000000003      41.359999999999999
   109   1      3.7599999999999913      50.759999999999998      43.239999999999995
   110   1      5.6399999999999935      48.880000000000003      43.239999999999995
   111   1      5.6399999999999935      50.759999999999998      41.359999999999999
   112   1      3.7599999999999913      48.880000000000003       45.11999999999999
   113   1      3.7599999999999913      50.759999999999998      46.999999999999993
   114   1      5.6399999999999935      48.880000000000003      46.999999999999993
   115   1      5.6399999999999935      50.759999999999998       45.11999999999999
   116   1      3.7599999999999913      48.880000000000003      48.880000000000003
   117   1      3.7599999999999913      50.759999999999998      50.759999999999998
   118   1      5.6399999999999935      48.880000000000003      50.759999999999998
   119   1      5.6399999999999935      50.759999999999998      48.880000000000003
   120   1      3.7599999999999913      48.880000000000003      52.640000000000001
   121   1      3.7599999999999913      50.759999999999998      54.519999999999996
   122   1      5.6399999999999935      48.880000000000003      54.519999999999996
   123   1      5.6399999999999935      50.759999999999998      52.640000000000001
   124   1      3.7599999999999913      48.880000000000003      56.399999999999999
   125   1      3.7599999999999913      50.759999999999998      58.280000000000001
   126   1      5.6399999999999935      48.880000000000003      58.280000000000001
   127   1      5.6399999999999935      50.759999999999998      56.399999999999999
   128   1      5.6399999999999935      50.759999999999998      60.159999999999989
   129   1      3.7599999999999913      54.519999999999996      39.480000000000004
   130   1      5.6399999999999935      52.640000000000001      39.480000000000004
   131   1      5.6399999999999935      54.519999999999996      37.599999999999994
   132   1      3.7599999999999913      52.640000000000001      41.359999999999999
   133   1      3.7599999999999913      54.519999999999996      43.239999999999995
   134   1      5.6399999999999935      52.640000000000001      43.239999999999995
   135   1      5.6399999999999935      54.519999999999996      41.359999999999999
   136   1      3.7599999999999913      52.640000000000001       45.11999999999999
   137   1      3.7599999999999913      54.519999999999996      46.999999999999993
   138   1      5.6399999999999935      52.640000000000001      46.999999999999993
   139   1      5.6399999999999935      54.519999999999996       45.11999999999999
   140   1      3.7599999999999913      52.640000000000001      48.880000000000003
   141   1      3.7599999999999913      54.519999999999996      50.759999999999998
   142   1      5.6399999999999935      52.640000000000001      50.759999999999998
   143   1      5.6399999999999935      54.519999999999996      48.880000000000003
   144   1      3.7599999999999913      52.640000000000001      52.640000000000001
   145   1      3.7599999999999913      54.519999999999996      54.519999999999996
   146   1      5.6399999999999935      52.640000000000001      54.519999999999996
   147   1      5.6399999999999935      54.519999999999996      52.640000000000001
   148   1      3.7599999999999913      52.640000000000001      56.399999999999999
   149   1      3.7599999999999913      54.519999999999996      58.280000000000001
   150   1      5.6399999999999935      52.640000000000001      58.280000000000001
   151   1      5.6399999999999935      54.519999999999996      56.399999999999999
   152   1      5.6399999999999935      54.519999999999996      60.159999999999989
   153   1      3.7599999999999913      58.280000000000001      39.480000000000004
   154   1      5.6399999999999935      56.399999999999999      39.480000000000004
   155   1      5.6399999999999935      58.280000000000001      37.599999999999994
   156   1      3.7599999999999913      56.399999999999999      41.359999999999999
   157   1      3.7599999999999913      58.280000000000001      43.239999999999995
   158   1      5.6399999999999935      56.399999999999999      43.239999999999995
   159   1      5.6399999999999935      58.280000000000001      41.359999999999999
   160   1      3.7599999999999913      56.399999999999999       45.11999999999999
   161   1      3.7599999999999913      58.280000000000001      46.999999999999993
   162   1      5.6399999999999935      56.399999999999999      46.999999999999993
   163   1      5.6399999999999935      58.280000000000001       45.11999999999999
   164   1      3.7599999999999913      56.399999999999999      48.880000000000003
   165   1      3.7599999999999913      58.280000000000001      50.759999999999998
   166   1      5.6399999999999935      56.399999999999999      50.759999999999998
   167   1      5.6399999999999935      58.280000000000001      48.880000000000003
   168   1      3.7599999999999913      56.399999999999999      52.640000000000001
   169   1      3.7599999999999913      58.280000000000001      54.519999999999996
   170   1      5.6399999999999935      56.399999999999999      54.519999999999996
   171   1      5.6399999999999935      58.280000000000001      52.640000000000001
   172   1      3.7599999999999913      56.399999999999999      56.399999999999999
   173   1      3.7599999999999913      58.280000000000001      58.280000000000001
   174   1      5.6399999999999935      56.399999999999999      58.280000000000001
   175   1      5.6399999999999935      58.280000000000001      56.399999999999999
   176   1      5.6399999999999935      58.280000000000001      60.159999999999989
   177   1      5.6399999999999935      60.159999999999989      39.480000000000004
   178   1      5.6399999999999935      60.159999999999989      43.239999999999995
   179   1      5.6399999999999935      60.159999999999989      46.999999999999993
   180   1      5.6399999999999935      60.159999999999989      50.759999999999998
   181   1      5.6399999999999935      60.159999999999989      54.519999999999996
   182   1      5.6399999999999935      60.159999999999989      58.280000000000001
   183   1      9.3999999999999915      31.959999999999997      33.839999999999989
   184   1      9.3999999999999915      31.959999999999997      37.599999999999994
   185   1      9.3999999999999915      31.959999999999997      41.359999999999999
   186   1      9.3999999999999915      31.959999999999997       45.11999999999999
   187   1      9.3999999999999915      31.959999999999997      48.880000000000003
   188   1      9.3999999999999915      31.959999999999997      52.640000000000001
   189   1      9.3999999999999915      31.959999999999997      56.399999999999999
   190   1      9.3999999999999915      31.959999999999997      60.159999999999989
   191   1      9.3999999999999915      31.959999999999997      63.919999999999995
   192   1      9.3999999999999915      33.839999999999989      31.959999999999997
   193   1       7.519999999999996      33.839999999999989      33.839999999999989
   194   1       7.519999999999996      35.719999999999992      35.719999999999992
   195   1      9.3999999999999915      33.839999999999989      35.719999999999992
   196   1      9.3999999999999915      35.719999999999992      33.839999999999989
   197   1       7.519999999999996      33.839999999999989      37.599999999999994
   198   1       7.519999999999996      35.719999999999992      39.480000000000004
   199   1      9.3999999999999915      33.839999999999989      39.480000000000004
   200   1      9.3999999999999915      35.719999999999992      37.599999999999994
   201   1       7.519999999999996      33.839999999999989      41.359999999999999
   202   1       7.519999999999996      35.719999999999992      43.239999999999995
   203   1      9.3999999999999915      33.839999999999989      43.239999999999995
   204   1      9.3999999999999915      35.719999999999992      41.359999999999999
   205   1       7.519999999999996      33.839999999999989       45.11999999999999
   206   1       7.519999999999996      35.719999999999992      46.999999999999993
   207   1      9.3999999999999915      33.839999999999989      46.999999999999993
   208   1      9.3999999999999915      35.719999999999992       45.11999999999999
   209   1       7.519999999999996      33.839999999999989      48.880000000000003
   210   1       7.519999999999996      35.719999999999992      50.759999999999998
   211   1      9.3999999999999915      33.839999999999989      50.759999999999998
   212   1      9.3999999999999915      35.719999999999992      48.880000000000003
   213   1       7.519999999999996      33.839999999999989      52.640000000000001
   214   1       7.519999999999996      35.719999999999992      54.519999999999996
   215   1      9.3999999999999915      33.839999999999989      54.519999999999996
   216   1      9.3999999999999915      35.719999999999992      52.640000000000001
   217   1       7.519999999999996      33.839999999999989      56.399999999999999
   218   1       7.519999999999996      35.719999999999992      58.280000000000001
   219   1      9.3999999999999915      33.839999999999989      58.280000000000001
   220   1      9.3999999999999915      35.719999999999992      56.399999999999999
   221   1       7.519999999999996      33.839999999999989      60.159999999999989
   222   1       7.519999999999996      35.719999999999992      62.039999999999992
   223   1      9.3999999999999915      33.839999999999989      62.039999999999992
   224   1      9.3999999999999915      35.719999999999992      60.159999999999989
   225   1       7.519999999999996      33.839999999999989      63.919999999999995
   226   1      9.3999999999999915      33.839999999999989      65.799999999999983
   227   1      9.3999999999999915      35.719999999999992      63.919999999999995
   228   1      9.3999999999999915      37.599999999999994      31.959999999999997
   229   1       7.519999999999996      37.599999999999994      33.839999999999989
   230   1       7.519999999999996      39.480000000000004      35.719999999999992
   231   1      9.3999999999999915      37.599999999999994      35.719999999999992
   232   1      9.3999999999999915      39.480000000000004      33.839999999999989
   233   1       7.519999999999996      37.599999999999994      37.599999999999994
   234   1       7.519999999999996      39.480000000000004      39.480000000000004
   235   1      9.3999999999999915      37.599999999999994      39.480000000000004
   236   1      9.3999999999999915      39.480000000000004      37.599999999999994
   237   1       7.519999999999996      37.599999999999994      41.359999999999999
   238   1       7.519999999999996      39.480000000000004      43.239999999999995
   239   1      9.3999999999999915      37.599999999999994      43.239999999999995
   240   1      9.3999999999999915      39.480000000000004      41.359999999999999
   241   1       7.519999999999996      37.599999999999994       45.11999999999999
   242   1       7.519999999999996      39.480000000000004      46.999999999999993
   243   1      9.3999999999999915      37.599999999999994      46.999999999999993
   244   1      9.3999999999999915      39.480000000000004       45.11999999999999
   245   1       7.519999999999996      37.599999999999994      48.880000000000003
   246   1       7.519999999999996      39.480000000000004      50.759999999999998
   247   1      9.3999999999999915      37.599999999999994      50.759999999999998
   248   1      9.3999999999999915      39.480000000000004      48.880000000000003
   249   1       7.519999999999996      37.599999999999994      52.640000000000001
   250   1       7.519999999999996      39.480000000000004      54.519999999999996
   251   1      9.3999999999999915      37.599999999999994      54.519999999999996
   252   1      9.3999999999999915      39.480000000000004      52.640000000000001
   253   1       7.519999999999996      37.599999999999994      56.399999999999999
   254   1       7.519999999999996      39.480000000000004      58.280000000000001
   255   1      9.3999999999999915      37.599999999999994      58.280000000000001
   256   1      9.3999999999999915      39.480000000000004      56.399999999999999
   257   1       7.519999999999996      37.599999999999994      60.159999999999989
   258   1       7.519999999999996      39.480000000000004      62.039999999999992
   259   1      9.3999999999999915      37.599999999999994      62.039999999999992
   260   1      9.3999999999999915      39.480000000000004      60.159999999999989
   261   1       7.519999999999996      37.599999999999994      63.919999999999995
   262   1      9.3999999999999915      37.599999999999994      65.799999999999983
   263   1      9.3999999999999915      39.480000000000004      63.919999999999995
   264   1      9.3999999999999915      41.359999999999999      31.959999999999997
   265   1       7.519999999999996      41.359999999999999      33.839999999999989
   266   1       7.519999999999996      43.239999999999995      35.719999999999992
   267   1      9.3999999999999915      41.359999999999999      35.719999999999992
   268   1      9.3999999999999915      43.239999999999995      33.839999999999989
   269   1       7.519999999999996      41.359999999999999      37.599999999999994
   270   1       7.519999999999996      43.239999999999995      39.480000000000004
   271   1      9.3999999999999915      41.359999999999999      39.480000000000004
   272   1      9.3999999999999915      43.239999999999995      37.599999999999994
   273   1       7.519999999999996      41.359999999999999      41.359999999999999
   274   1       7.519999999999996      43.239999999999995      43.239999999999995
   275   1      9.3999999999999915      41.359999999999999      43.239999999999995
   276   1      9.3999999999999915      43.239999999999995      41.359999999999999
   277   1       7.519999999999996      41.359999999999999       45.11999999999999
   278   1       7.519999999999996      43.239999999999995      46.999999999999993
   279   1      9.3999999999999915      41.359999999999999      46.999999999999993
   280   1      9.3999999999999915      43.239999999999995       45.11999999999999
   281   1       7.519999999999996      41.359999999999999      48.880000000000003
   282   1       7.519999999999996      43.239999999999995      50.759999999999998
   283   1      9.3999999999999915      41.359999999999999      50.759999999999998
   284   1      9.3999999999999915      43.239999999999995      48.880000000000003
   285   1       7.519999999999996      41.359999999999999      52.640000000000001
   286   1       7.519999999999996      43.239999999999995      54.519999999999996
   287   1      9.3999999999999915      41.359999999999999      54.519999999999996
   288   1      9.3999999999999915      43.239999999999995      52.640000000000001
   289   1       7.519999999999996      41.359999999999999      56.399999999999999
   290   1       7.519999999999996      43.239999999999995      58.280000000000001
   291   1      9.3999999999999915      41.359999999999999      58.280000000000001
   292   1      9.3999999999999915      43.239999999999995      56.399999999999999
   293   1       7.519999999999996      41.359999999999999      60.159999999999989
   294   1       7.519999999999996      43.239999999999995      62.039999999999992
   295   1      9.3999999999999915      41.359999999999999      62.039999999999992
   296   1      9.3999999999999915      43.239999999999995      60.159999999999989
   297   1       7.519999999999996      41.359999999999999      63.919999999999995
   298   1      9.3999999999999915      41.359999999999999      65.799999999999983
   299   1      9.3999999999999915      43.239999999999995      63.919999999999995
   300   1      9.3999999999999915       45.11999999999999      31.959999999999997
   301   1       7.519999999999996       45.11999999999999      33.839999999999989
   302   1       7.519999999999996      46.999999999999993      35.719999999999992
   303   1      9.3999999999999915       45.11999999999999      35.719999999999992
   304   1      9.3999999999999915      46.999999999999993      33.839999999999989
   305   1       7.519999999999996       45.11999999999999      37.599999999999994
   306   1       7.519999999999996      46.999999999999993      39.480000000000004
   307   1      9.3999999999999915       45.11999999999999      39.480000000000004
   308   1      9.3999999999999915      46.999999999999993      37.599999999999994
   309   1       7.519999999999996       45.11999999999999      41.359999999999999
   310   1       7.519999999999996      46.999999999999993      43.239999999999995
   311   1      9.3999999999999915       45.11999999999999      43.239999999999995
   312   1      9.3999999999999915      46.999999999999993      41.359999999999999
   313   1       7.519999999999996       45.11999999999999       45.11999999999999
   314   1       7.519999999999996      46.999999999999993      46.999999999999993
   315   1      9.3999999999999915       45.11999999999999      46.999999999999993
   316   1      9.3999999999999915      46.999999999999993       45.11999999999999
   317   1       7.519999999999996       45.11999999999999      48.880000000000003
   318   1       7.519999999999996      46.999999999999993      50.759999999999998
   319   1      9.3999999999999915       45.11999999999999      50.759999999999998
   320   1      9.3999999999999915      46.999999999999993      48.880000000000003
   321   1       7.519999999999996       45.11999999999999      52.640000000000001
   322   1       7.519999999999996      46.999999999999993      54.519999999999996
   323   1      9.3999999999999915       45.11999999999999      54.519999999999996
   324   1      9.3999999999999915      46.999999999999993      52.640000000000001
   325   1       7.519999999999996       45.11999999999999      56.399999999999999
   326   1       7.519999999999996      46.999999999999993      58.280000000000001
   327   1      9.3999999999999915       45.11999999999999      58.280000000000001
   328   1      9.3999999999999915      46.999999999999993      56.399999999999999
   329   1       7.519999999999996       45.11999999999999      60.159999999999989
   330   1       7.519999999999996      46.999999999999993      62.039999999999992
   331   1      9.3999999999999915       45.11999999999999      62.039999999999992
   332   1      9.3999999999999915      46.999999999999993      60.159999999999989
   333   1       7.519999999999996       45.11999999999999      63.919999999999995
   334   1      9.3999999999999915       45.11999999999999      65.799999999999983
   335   1      9.3999999999999915      46.999999999999993      63.919999999999995
   336   1      9.3999999999999915      48.880000000000003      31.959999999999997
   337   1       7.519999999999996      48.880000000000003      33.839999999999989
   338   1       7.519999999999996      50.759999999999998      35.719999999999992
   339   1      9.3999999999999915      48.880000000000003      35.719999999999992
   340   1      9.3999999999999915      50.759999999999998      33.839999999999989
   341   1       7.519999999999996      48.880000000000003      37.599999999999994
   342   1       7.519999999999996      50.759999999999998      39.480000000000004
   343   1      9.3999999999999915      48.880000000000003      39.480000000000004
   344   1      9.3999999999999915      50.759999999999998      37.599999999999994
   345   1       7.519999999999996      48.880000000000003      41.359999999999999
   346   1       7.519999999999996      50.759999999999998      43.239999999999995
   347   1      9.3999999999999915      48.880000000000003      43.239999999999995
   348   1      9.3999999999999915      50.759999999999998      41.359999999999999
   349   1       7.519999999999996      48.880000000000003       45.11999999999999
   350   1       7.519999999999996      50.759999999999998      46.999999999999993
   351   1      9.3999999999999915      48.880000000000003      46.999999999999993
   352   1      9.3999999999999915      50.759999999999998       45.11999999999999
   353   1       7.519999999999996      48.880000000000003      48.880000000000003
   354   1       7.519999999999996      50.759999999999998      50.759999999999998
   355   1      9.3999999999999915      48.880000000000003      50.759999999999998
   356   1      9.3999999999999915      50.759999999999998      48.880000000000003
   357   1       7.519999999999996      48.880000000000003      52.640000000000001
   358   1       7.519999999999996      50.759999999999998      54.519999999999996