model_files/Ag/Ag_30000/Ag_410/data.Ag_410_fcc_29755 (written by ASE) 

29755 	 atoms 
1  atom types
0.0                      91  xlo xhi
0.0                      91  ylo yhi
0.0                      91  zlo zhi


Atoms 

     1   1      2.0449999999999946      32.720000000000006      34.765000000000001
     2   1      2.0449999999999946      34.765000000000001      32.720000000000006
     3   1      2.0449999999999946      32.720000000000006      38.854999999999997
     4   1      2.0449999999999946      34.765000000000001      36.810000000000002
     5   1      2.0449999999999946      32.720000000000006                  42.945
     6   1      2.0449999999999946      34.765000000000001      40.899999999999999
     7   1      2.0449999999999946      32.720000000000006      47.034999999999997
     8   1      2.0449999999999946      34.765000000000001      44.989999999999995
     9   1      2.0449999999999946      32.720000000000006                  51.125
    10   1      2.0449999999999946      34.765000000000001      49.079999999999998
    11   1      2.0449999999999946      32.720000000000006      55.215000000000003
    12   1      2.0449999999999946      34.765000000000001      53.170000000000002
    13   1      2.0449999999999946      34.765000000000001      57.259999999999991
    14   1      2.0449999999999946      36.810000000000002      34.765000000000001
    15   1      2.0449999999999946      38.854999999999997      32.720000000000006
    16   1      2.0449999999999946      36.810000000000002      38.854999999999997
    17   1      2.0449999999999946      38.854999999999997      36.810000000000002
    18   1      2.0449999999999946      36.810000000000002                  42.945
    19   1      2.0449999999999946      38.854999999999997      40.899999999999999
    20   1      2.0449999999999946      36.810000000000002      47.034999999999997
    21   1      2.0449999999999946      38.854999999999997      44.989999999999995
    22   1      2.0449999999999946      36.810000000000002                  51.125
    23   1      2.0449999999999946      38.854999999999997      49.079999999999998
    24   1      2.0449999999999946      36.810000000000002      55.215000000000003
    25   1      2.0449999999999946      38.854999999999997      53.170000000000002
    26   1      2.0449999999999946      38.854999999999997      57.259999999999991
    27   1      2.0449999999999946      40.899999999999999      34.765000000000001
    28   1      2.0449999999999946                  42.945      32.720000000000006
    29   1      2.0449999999999946      40.899999999999999      38.854999999999997
    30   1      2.0449999999999946                  42.945      36.810000000000002
    31   1                       0      40.899999999999999      40.899999999999999
    32   1                       0                  42.945                  42.945
    33   1      2.0449999999999946      40.899999999999999                  42.945
    34   1      2.0449999999999946                  42.945      40.899999999999999
    35   1                       0      40.899999999999999      44.989999999999995
    36   1                       0                  42.945      47.034999999999997
    37   1      2.0449999999999946      40.899999999999999      47.034999999999997
    38   1      2.0449999999999946                  42.945      44.989999999999995
    39   1                       0      40.899999999999999      49.079999999999998
    40   1      2.0449999999999946      40.899999999999999                  51.125
    41   1      2.0449999999999946                  42.945      49.079999999999998
    42   1      2.0449999999999946      40.899999999999999      55.215000000000003
    43   1      2.0449999999999946                  42.945      53.170000000000002
    44   1      2.0449999999999946                  42.945      57.259999999999991
    45   1      2.0449999999999946      44.989999999999995      34.765000000000001
    46   1      2.0449999999999946      47.034999999999997      32.720000000000006
    47   1      2.0449999999999946      44.989999999999995      38.854999999999997
    48   1      2.0449999999999946      47.034999999999997      36.810000000000002
    49   1                       0      44.989999999999995      40.899999999999999
    50   1                       0      47.034999999999997                  42.945
    51   1      2.0449999999999946      44.989999999999995                  42.945
    52   1      2.0449999999999946      47.034999999999997      40.899999999999999
    53   1                       0      44.989999999999995      44.989999999999995
    54   1                       0      47.034999999999997      47.034999999999997
    55   1      2.0449999999999946      44.989999999999995      47.034999999999997
    56   1      2.0449999999999946      47.034999999999997      44.989999999999995
    57   1                       0      44.989999999999995      49.079999999999998
    58   1      2.0449999999999946      44.989999999999995                  51.125
    59   1      2.0449999999999946      47.034999999999997      49.079999999999998
    60   1      2.0449999999999946      44.989999999999995      55.215000000000003
    61   1      2.0449999999999946      47.034999999999997      53.170000000000002
    62   1      2.0449999999999946      47.034999999999997      57.259999999999991
    63   1      2.0449999999999946      49.079999999999998      34.765000000000001
    64   1      2.0449999999999946                  51.125      32.720000000000006
    65   1      2.0449999999999946      49.079999999999998      38.854999999999997
    66   1      2.0449999999999946                  51.125      36.810000000000002
    67   1                       0      49.079999999999998      40.899999999999999
    68   1      2.0449999999999946      49.079999999999998                  42.945
    69   1      2.0449999999999946                  51.125      40.899999999999999
    70   1                       0      49.079999999999998      44.989999999999995
    71   1      2.0449999999999946      49.079999999999998      47.034999999999997
    72   1      2.0449999999999946                  51.125      44.989999999999995
    73   1                       0      49.079999999999998      49.079999999999998
    74   1      2.0449999999999946      49.079999999999998                  51.125
    75   1      2.0449999999999946                  51.125      49.079999999999998
    76   1      2.0449999999999946      49.079999999999998      55.215000000000003
    77   1      2.0449999999999946                  51.125      53.170000000000002
    78   1      2.0449999999999946                  51.125      57.259999999999991
    79   1      2.0449999999999946      53.170000000000002      34.765000000000001
    80   1      2.0449999999999946      55.215000000000003      32.720000000000006
    81   1      2.0449999999999946      53.170000000000002      38.854999999999997
    82   1      2.0449999999999946      55.215000000000003      36.810000000000002
    83   1      2.0449999999999946      53.170000000000002                  42.945
    84   1      2.0449999999999946      55.215000000000003      40.899999999999999
    85   1      2.0449999999999946      53.170000000000002      47.034999999999997
    86   1      2.0449999999999946      55.215000000000003      44.989999999999995
    87   1      2.0449999999999946      53.170000000000002                  51.125
    88   1      2.0449999999999946      55.215000000000003      49.079999999999998
    89   1      2.0449999999999946      53.170000000000002      55.215000000000003
    90   1      2.0449999999999946      55.215000000000003      53.170000000000002
    91   1      2.0449999999999946      55.215000000000003      57.259999999999991
    92   1      2.0449999999999946      57.259999999999991      34.765000000000001
    93   1      2.0449999999999946      57.259999999999991      38.854999999999997
    94   1      2.0449999999999946      57.259999999999991                  42.945
    95   1      2.0449999999999946      57.259999999999991      47.034999999999997
    96   1      2.0449999999999946      57.259999999999991                  51.125
    97   1      2.0449999999999946      57.259999999999991      55.215000000000003
    98   1      6.1349999999999989      16.359999999999996      18.404999999999994
    99   1      6.1349999999999989      18.404999999999994      16.359999999999996
   100   1      6.1349999999999989      16.359999999999996      22.494999999999997
   101   1      6.1349999999999989      18.404999999999994      20.449999999999999
   102   1      6.1349999999999989      16.359999999999996      26.584999999999994
   103   1      6.1349999999999989      18.404999999999994      24.539999999999999
   104   1      6.1349999999999989      16.359999999999996      30.674999999999997
   105   1      6.1349999999999989      18.404999999999994      28.629999999999995
   106   1      6.1349999999999989      16.359999999999996      34.765000000000001
   107   1      6.1349999999999989      18.404999999999994      32.720000000000006
   108   1      6.1349999999999989      16.359999999999996      38.854999999999997
   109   1      6.1349999999999989      18.404999999999994      36.810000000000002
   110   1      6.1349999999999989      16.359999999999996                  42.945
   111   1      6.1349999999999989      18.404999999999994      40.899999999999999
   112   1      6.1349999999999989      16.359999999999996      47.034999999999997
   113   1      6.1349999999999989      18.404999999999994      44.989999999999995
   114   1      6.1349999999999989      16.359999999999996                  51.125
   115   1      6.1349999999999989      18.404999999999994      49.079999999999998
   116   1      6.1349999999999989      16.359999999999996      55.215000000000003
   117   1      6.1349999999999989      18.404999999999994      53.170000000000002
   118   1      6.1349999999999989      16.359999999999996      59.304999999999993
   119   1      6.1349999999999989      18.404999999999994      57.259999999999991
   120   1      6.1349999999999989      16.359999999999996      63.395000000000003
   121   1      6.1349999999999989      18.404999999999994      61.349999999999994
   122   1      6.1349999999999989      16.359999999999996      67.485000000000014
   123   1      6.1349999999999989      18.404999999999994      65.440000000000012
   124   1      6.1349999999999989      16.359999999999996      71.575000000000003
   125   1      6.1349999999999989      18.404999999999994      69.530000000000001
   126   1      6.1349999999999989      18.404999999999994      73.620000000000005
   127   1      6.1349999999999989      20.449999999999999      18.404999999999994
   128   1      6.1349999999999989      22.494999999999997      16.359999999999996
   129   1      6.1349999999999989      20.449999999999999      22.494999999999997
   130   1      6.1349999999999989      22.494999999999997      20.449999999999999
   131   1      6.1349999999999989      20.449999999999999      26.584999999999994
   132   1      6.1349999999999989      22.494999999999997      24.539999999999999
   133   1      6.1349999999999989      20.449999999999999      30.674999999999997
   134   1      6.1349999999999989      22.494999999999997      28.629999999999995
   135   1      6.1349999999999989      20.449999999999999      34.765000000000001
   136   1      6.1349999999999989      22.494999999999997      32.720000000000006
   137   1      6.1349999999999989      20.449999999999999      38.854999999999997
   138   1      6.1349999999999989      22.494999999999997      36.810000000000002
   139   1      6.1349999999999989      20.449999999999999                  42.945
   140   1      6.1349999999999989      22.494999999999997      40.899999999999999
   141   1      6.1349999999999989      20.449999999999999      47.034999999999997
   142   1      6.1349999999999989      22.494999999999997      44.989999999999995
   143   1      6.1349999999999989      20.449999999999999                  51.125
   144   1      6.1349999999999989      22.494999999999997      49.079999999999998
   145   1      6.1349999999999989      20.449999999999999      55.215000000000003
   146   1      6.1349999999999989      22.494999999999997      53.170000000000002
   147   1      6.1349999999999989      20.449999999999999      59.304999999999993
   148   1      6.1349999999999989      22.494999999999997      57.259999999999991
   149   1      6.1349999999999989      20.449999999999999      63.395000000000003
   150   1      6.1349999999999989      22.494999999999997      61.349999999999994
   151   1      6.1349999999999989      20.449999999999999      67.485000000000014
   152   1      6.1349999999999989      22.494999999999997      65.440000000000012
   153   1      6.1349999999999989      20.449999999999999      71.575000000000003
   154   1      6.1349999999999989      22.494999999999997      69.530000000000001
   155   1      6.1349999999999989      22.494999999999997      73.620000000000005
   156   1      6.1349999999999989      24.539999999999999      18.404999999999994
   157   1      6.1349999999999989      26.584999999999994      16.359999999999996
   158   1      6.1349999999999989      24.539999999999999      22.494999999999997
   159   1      6.1349999999999989      26.584999999999994      20.449999999999999
   160   1      4.0899999999999963      24.539999999999999      24.539999999999999
   161   1      4.0899999999999963      26.584999999999994      26.584999999999994
   162   1      6.1349999999999989      24.539999999999999      26.584999999999994
   163   1      6.1349999999999989      26.584999999999994      24.539999999999999
   164   1      4.0899999999999963      24.539999999999999      28.629999999999995
   165   1      4.0899999999999963      26.584999999999994      30.674999999999997
   166   1      6.1349999999999989      24.539999999999999      30.674999999999997
   167   1      6.1349999999999989      26.584999999999994      28.629999999999995
   168   1      4.0899999999999963      24.539999999999999      32.720000000000006
   169   1      4.0899999999999963      26.584999999999994      34.765000000000001
   170   1      6.1349999999999989      24.539999999999999      34.765000000000001
   171   1      6.1349999999999989      26.584999999999994      32.720000000000006
   172   1      4.0899999999999963      24.539999999999999      36.810000000000002
   173   1      4.0899999999999963      26.584999999999994      38.854999999999997
   174   1      6.1349999999999989      24.539999999999999      38.854999999999997
   175   1      6.1349999999999989      26.584999999999994      36.810000000000002
   176   1      4.0899999999999963      24.539999999999999      40.899999999999999
   177   1      4.0899999999999963      26.584999999999994                  42.945
   178   1      6.1349999999999989      24.539999999999999                  42.945
   179   1      6.1349999999999989      26.584999999999994      40.899999999999999
   180   1      4.0899999999999963      24.539999999999999      44.989999999999995
   181   1      4.0899999999999963      26.584999999999994      47.034999999999997
   182   1      6.1349999999999989      24.539999999999999      47.034999999999997
   183   1      6.1349999999999989      26.584999999999994      44.989999999999995
   184   1      4.0899999999999963      24.539999999999999      49.079999999999998
   185   1      4.0899999999999963      26.584999999999994                  51.125
   186   1      6.1349999999999989      24.539999999999999                  51.125
   187   1      6.1349999999999989      26.584999999999994      49.079999999999998
   188   1      4.0899999999999963      24.539999999999999      53.170000000000002
   189   1      4.0899999999999963      26.584999999999994      55.215000000000003
   190   1      6.1349999999999989      24.539999999999999      55.215000000000003
   191   1      6.1349999999999989      26.584999999999994      53.170000000000002
   192   1      4.0899999999999963      24.539999999999999      57.259999999999991
   193   1      4.0899999999999963      26.584999999999994      59.304999999999993
   194   1      6.1349999999999989      24.539999999999999      59.304999999999993
   195   1      6.1349999999999989      26.584999999999994      57.259999999999991
   196   1      4.0899999999999963      24.539999999999999      61.349999999999994
   197   1      4.0899999999999963      26.584999999999994      63.395000000000003
   198   1      6.1349999999999989      24.539999999999999      63.395000000000003
   199   1      6.1349999999999989      26.584999999999994      61.349999999999994
   200   1      4.0899999999999963      24.539999999999999      65.440000000000012
   201   1      6.1349999999999989      24.539999999999999      67.485000000000014
   202   1      6.1349999999999989      26.584999999999994      65.440000000000012
   203   1      6.1349999999999989      24.539999999999999      71.575000000000003
   204   1      6.1349999999999989      26.584999999999994      69.530000000000001
   205   1      6.1349999999999989      26.584999999999994      73.620000000000005
   206   1      6.1349999999999989      28.629999999999995      18.404999999999994
   207   1      6.1349999999999989      30.674999999999997      16.359999999999996
   208   1      6.1349999999999989      28.629999999999995      22.494999999999997
   209   1      6.1349999999999989      30.674999999999997      20.449999999999999
   210   1      4.0899999999999963      28.629999999999995      24.539999999999999
   211   1      4.0899999999999963      30.674999999999997      26.584999999999994
   212   1      6.1349999999999989      28.629999999999995      26.584999999999994
   213   1      6.1349999999999989      30.674999999999997      24.539999999999999
   214   1      4.0899999999999963      28.629999999999995      28.629999999999995
   215   1      4.0899999999999963      30.674999999999997      30.674999999999997
   216   1      6.1349999999999989      28.629999999999995      30.674999999999997
   217   1      6.1349999999999989      30.674999999999997      28.629999999999995
   218   1      4.0899999999999963      28.629999999999995      32.720000000000006
   219   1      4.0899999999999963      30.674999999999997      34.765000000000001
   220   1      6.1349999999999989      28.629999999999995      34.765000000000001
   221   1      6.1349999999999989      30.674999999999997      32.720000000000006
   222   1      4.0899999999999963      28.629999999999995      36.810000000000002
   223   1      4.0899999999999963      30.674999999999997      38.854999999999997
   224   1      6.1349999999999989      28.629999999999995      38.854999999999997
   225   1      6.1349999999999989      30.674999999999997      36.810000000000002
   226   1      4.0899999999999963      28.629999999999995      40.899999999999999
   227   1      4.0899999999999963      30.674999999999997                  42.945
   228   1      6.1349999999999989      28.629999999999995                  42.945
   229   1      6.1349999999999989      30.674999999999997      40.899999999999999
   230   1      4.0899999999999963      28.629999999999995      44.989999999999995
   231   1      4.0899999999999963      30.674999999999997      47.034999999999997
   232   1      6.1349999999999989      28.629999999999995      47.034999999999997
   233   1      6.1349999999999989      30.674999999999997      44.989999999999995
   234   1      4.0899999999999963      28.629999999999995      49.079999999999998
   235   1      4.0899999999999963      30.674999999999997                  51.125
   236   1      6.1349999999999989      28.629999999999995                  51.125
   237   1      6.1349999999999989      30.674999999999997      49.079999999999998
   238   1      4.0899999999999963      28.629999999999995      53.170000000000002
   239   1      4.0899999999999963      30.674999999999997      55.215000000000003
   240   1      6.1349999999999989      28.629999999999995      55.215000000000003
   241   1      6.1349999999999989      30.674999999999997      53.170000000000002
   242   1      4.0899999999999963      28.629999999999995      57.259999999999991
   243   1      4.0899999999999963      30.674999999999997      59.304999999999993
   244   1      6.1349999999999989      28.629999999999995      59.304999999999993
   245   1      6.1349999999999989      30.674999999999997      57.259999999999991
   246   1      4.0899999999999963      28.629999999999995      61.349999999999994
   247   1      4.0899999999999963      30.674999999999997      63.395000000000003
   248   1      6.1349999999999989      28.629999999999995      63.395000000000003
   249   1      6.1349999999999989      30.674999999999997      61.349999999999994
   250   1      4.0899999999999963      28.629999999999995      65.440000000000012
   251   1      6.1349999999999989      28.629999999999995      67.485000000000014
   252   1      6.1349999999999989      30.674999999999997      65.440000000000012
   253   1      6.1349999999999989      28.629999999999995      71.575000000000003
   254   1      6.1349999999999989      30.674999999999997      69.530000000000001
   255   1      6.1349999999999989      30.674999999999997      73.620000000000005
   256   1      6.1349999999999989      32.720000000000006      18.404999999999994
   257   1      6.1349999999999989      34.765000000000001      16.359999999999996
   258   1      6.1349999999999989      32.720000000000006      22.494999999999997
   259   1      6.1349999999999989      34.765000000000001      20.449999999999999
   260   1      4.0899999999999963      32.720000000000006      24.539999999999999
   261   1      4.0899999999999963      34.765000000000001      26.584999999999994
   262   1      6.1349999999999989      32.720000000000006      26.584999999999994
   263   1      6.1349999999999989      34.765000000000001      24.539999999999999
   264   1      4.0899999999999963      32.720000000000006      28.629999999999995
   265   1      4.0899999999999963      34.765000000000001      30.674999999999997
   266   1      6.1349999999999989      32.720000000000006      30.674999999999997
   267   1      6.1349999999999989      34.765000000000001      28.629999999999995
   268   1      4.0899999999999963      32.720000000000006      32.720000000000006
   269   1      4.0899999999999963      34.765000000000001      34.765000000000001
   270   1      6.1349999999999989      32.720000000000006      34.765000000000001
   271   1      6.1349999999999989      34.765000000000001      32.720000000000006
   272   1      4.0899999999999963      32.720000000000006      36.810000000000002
   273   1      4.0899999999999963      34.765000000000001      38.854999999999997
   274   1      6.1349999999999989      32.720000000000006      38.854999999999997
   275   1      6.1349999999999989      34.765000000000001      36.810000000000002
   276   1      4.0899999999999963      32.720000000000006      40.899999999999999
   277   1      4.0899999999999963      34.765000000000001                  42.945
   278   1      6.1349999999999989      32.720000000000006                  42.945
   279   1      6.1349999999999989      34.765000000000001      40.899999999999999
   280   1      4.0899999999999963      32.720000000000006      44.989999999999995
   281   1      4.0899999999999963      34.765000000000001      47.034999999999997
   282   1      6.1349999999999989      32.720000000000006      47.034999999999997
   283   1      6.1349999999999989      34.765000000000001      44.989999999999995
   284   1      4.0899999999999963      32.720000000000006      49.079999999999998
   285   1      4.0899999999999963      34.765000000000001                  51.125
   286   1      6.1349999999999989      32.720000000000006                  51.125
   287   1      6.1349999999999989      34.765000000000001      49.079999999999998
   288   1      4.0899999999999963      32.720000000000006      53.170000000000002
   289   1      4.0899999999999963      34.765000000000001      55.215000000000003
   290   1      6.1349999999999989      32.720000000000006      55.215000000000003
   291   1      6.1349999999999989      34.765000000000001      53.170000000000002
   292   1      4.0899999999999963      32.720000000000006      57.259999999999991
   293   1      4.0899999999999963      34.765000000000001      59.304999999999993
   294   1      6.1349999999999989      32.720000000000006      59.304999999999993
   295   1      6.1349999999999989      34.765000000000001      57.259999999999991
   296   1      4.0899999999999963      32.720000000000006      61.349999999999994
   297   1      4.0899999999999963      34.765000000000001      63.395000000000003
   298   1      6.1349999999999989      32.720000000000006      63.395000000000003
   299   1      6.1349999999999989      34.765000000000001      61.349999999999994
   300   1      4.0899999999999963      32.720000000000006      65.440000000000012
   301   1      6.1349999999999989      32.720000000000006      67.485000000000014
   302   1      6.1349999999999989      34.765000000000001      65.440000000000012
   303   1      6.1349999999999989      32.720000000000006      71.575000000000003
   304   1      6.1349999999999989      34.765000000000001      69.530000000000001
   305   1      6.1349999999999989      34.765000000000001      73.620000000000005
   306   1      6.1349999999999989      36.810000000000002      18.404999999999994
   307   1      6.1349999999999989      38.854999999999997      16.359999999999996
   308   1      6.1349999999999989      36.810000000000002      22.494999999999997
   309   1      6.1349999999999989      38.854999999999997      20.449999999999999
   310   1      4.0899999999999963      36.810000000000002      24.539999999999999
   311   1      4.0899999999999963      38.854999999999997      26.584999999999994
   312   1      6.1349999999999989      36.810000000000002      26.584999999999994
   313   1      6.1349999999999989      38.854999999999997      24.539999999999999
   314   1      4.0899999999999963      36.810000000000002      28.629999999999995
   315   1      4.0899999999999963      38.854999999999997      30.674999999999997
   316   1      6.1349999999999989      36.810000000000002      30.674999999999997
   317   1      6.1349999999999989      38.854999999999997      28.629999999999995
   318   1      4.0899999999999963      36.810000000000002      32.720000000000006
   319   1      4.0899999999999963      38.854999999999997      34.765000000000001
   320   1      6.1349999999999989      36.810000000000002      34.765000000000001
   321   1      6.1349999999999989      38.854999999999997      32.720000000000006
   322   1      4.0899999999999963      36.810000000000002      36.810000000000002
   323   1      4.0899999999999963      38.854999999999997      38.854999999999997
   324   1      6.1349999999999989      36.810000000000002      38.854999999999997
   325   1      6.1349999999999989      38.854999999999997      36.810000000000002
   326   1      4.0899999999999963      36.810000000000002      40.899999999999999
   327   1      4.0899999999999963      38.854999999999997                  42.945
   328   1      6.1349999999999989      36.810000000000002                  42.945
   329   1      6.1349999999999989      38.854999999999997      40.899999999999999
   330   1      4.0899999999999963      36.810000000000002      44.989999999999995
   331   1      4.0899999999999963      38.854999999999997      47.034999999999997
   332   1      6.1349999999999989      36.810000000000002      47.034999999999997
   333   1      6.1349999999999989      38.854999999999997      44.989999999999995
   334   1      4.0899999999999963      36.810000000000002      49.079999999999998
   335   1      4.0899999999999963      38.854999999999997                  51.125
   336   1      6.1349999999999989      36.810000000000002                  51.125
   337   1      6.1349999999999989      38.854999999999997      49.079999999999998
   338   1      4.0899999999999963      36.810000000000002      53.170000000000002
   339   1      4.0899999999999963      38.854999999999997      55.215000000000003
   340   1      6.1349999999999989      36.810000000000002      55.215000000000003
   341   1      6.1349999999999989      38.854999999999997      53.170000000000002
   342   1      4.0899999999999963      36.810000000000002      57.259999999999991
   343   1      4.0899999999999963      38.854999999999997      59.304999999999993
   344   1      6.1349999999999989      36.810000000000002      59.304999999999993
   345   1      6.1349999999999989      38.854999999999997      57.259999999999991
   346   1      4.0899999999999963      36.810000000000002      61.349999999999994
   347   1      4.0899999999999963      38.854999999999997      63.395000000000003
   348   1      6.1349999999999989      36.810000000000002      63.395000000000003
   349   1      6.1349999999999989      38.854999999999997      61.349999999999994
   350   1      4.0899999999999963      36.810000000000002      65.440000000000012
   351   1      6.1349999999999989      36.810000000000002      67.485000000000014
   352   1      6.1349999999999989      38.854999999999997      65.440000000000012
   353   1      6.1349999999999989      36.810000000000002      71.575000000000003
   354   1      6.1349999999999989      38.854999999999997      69.530000000000001
   355   1      6.1349999999999989      38.854999999999997      73.620000000000005
   356   1      6.1349999999999989      40.899999999999999      18.404999999999994
   357   1      6.1349999999999989                  42.945      16.359999999999996
   358   1      6.1349999999999989      40.899999999999999      22.494999999999997