model_files/Fe/Fe_30000/Fe_510/data.Fe_510_bcc_29899 (written by ASE) 

29899 	 atoms 
1  atom types
0.0                      65  xlo xhi
0.0                      65  ylo yhi
0.0                      65  zlo zhi


Atoms 

     1   1      1.4349999999999954      24.394999999999996      25.829999999999995
     2   1      1.4349999999999954      24.394999999999996      28.699999999999992
     3   1      1.4349999999999954      24.394999999999996      31.569999999999993
     4   1      1.4349999999999954      24.394999999999996      34.439999999999991
     5   1      1.4349999999999954      24.394999999999996      37.309999999999988
     6   1      1.4349999999999954      25.829999999999995      24.394999999999996
     7   1      1.4349999999999954      25.829999999999995       27.26499999999999
     8   1      1.4349999999999954       27.26499999999999      25.829999999999995
     9   1      1.4349999999999954      25.829999999999995      30.134999999999991
    10   1      1.4349999999999954       27.26499999999999      28.699999999999992
    11   1      1.4349999999999954      25.829999999999995      33.004999999999995
    12   1      1.4349999999999954       27.26499999999999      31.569999999999993
    13   1      1.4349999999999954      25.829999999999995      35.874999999999993
    14   1      1.4349999999999954       27.26499999999999      34.439999999999991
    15   1      1.4349999999999954      25.829999999999995       38.74499999999999
    16   1      1.4349999999999954       27.26499999999999      37.309999999999988
    17   1      1.4349999999999954      28.699999999999992      24.394999999999996
    18   1      1.4349999999999954      28.699999999999992       27.26499999999999
    19   1      1.4349999999999954      30.134999999999991      25.829999999999995
    20   1      1.4349999999999954      28.699999999999992      30.134999999999991
    21   1      1.4349999999999954      30.134999999999991      28.699999999999992
    22   1      1.4349999999999954      28.699999999999992      33.004999999999995
    23   1      1.4349999999999954      30.134999999999991      31.569999999999993
    24   1      1.4349999999999954      28.699999999999992      35.874999999999993
    25   1      1.4349999999999954      30.134999999999991      34.439999999999991
    26   1      1.4349999999999954      28.699999999999992       38.74499999999999
    27   1      1.4349999999999954      30.134999999999991      37.309999999999988
    28   1      1.4349999999999954      31.569999999999993      24.394999999999996
    29   1      1.4349999999999954      31.569999999999993       27.26499999999999
    30   1      1.4349999999999954      33.004999999999995      25.829999999999995
    31   1      1.4349999999999954      31.569999999999993      30.134999999999991
    32   1      1.4349999999999954      33.004999999999995      28.699999999999992
    33   1                      65      31.569999999999993      31.569999999999993
    34   1      1.4349999999999954      31.569999999999993      33.004999999999995
    35   1      1.4349999999999954      33.004999999999995      31.569999999999993
    36   1      1.4349999999999954      31.569999999999993      35.874999999999993
    37   1      1.4349999999999954      33.004999999999995      34.439999999999991
    38   1      1.4349999999999954      31.569999999999993       38.74499999999999
    39   1      1.4349999999999954      33.004999999999995      37.309999999999988
    40   1      1.4349999999999954      34.439999999999991      24.394999999999996
    41   1      1.4349999999999954      34.439999999999991       27.26499999999999
    42   1      1.4349999999999954      35.874999999999993      25.829999999999995
    43   1      1.4349999999999954      34.439999999999991      30.134999999999991
    44   1      1.4349999999999954      35.874999999999993      28.699999999999992
    45   1      1.4349999999999954      34.439999999999991      33.004999999999995
    46   1      1.4349999999999954      35.874999999999993      31.569999999999993
    47   1      1.4349999999999954      34.439999999999991      35.874999999999993
    48   1      1.4349999999999954      35.874999999999993      34.439999999999991
    49   1      1.4349999999999954      34.439999999999991       38.74499999999999
    50   1      1.4349999999999954      35.874999999999993      37.309999999999988
    51   1      1.4349999999999954      37.309999999999988      24.394999999999996
    52   1      1.4349999999999954      37.309999999999988       27.26499999999999
    53   1      1.4349999999999954       38.74499999999999      25.829999999999995
    54   1      1.4349999999999954      37.309999999999988      30.134999999999991
    55   1      1.4349999999999954       38.74499999999999      28.699999999999992
    56   1      1.4349999999999954      37.309999999999988      33.004999999999995
    57   1      1.4349999999999954       38.74499999999999      31.569999999999993
    58   1      1.4349999999999954      37.309999999999988      35.874999999999993
    59   1      1.4349999999999954       38.74499999999999      34.439999999999991
    60   1      1.4349999999999954      37.309999999999988       38.74499999999999
    61   1      1.4349999999999954       38.74499999999999      37.309999999999988
    62   1      4.3049999999999926      10.044999999999995      11.479999999999995
    63   1      4.3049999999999926      10.044999999999995      14.349999999999994
    64   1      4.3049999999999926      10.044999999999995      17.219999999999992
    65   1      4.3049999999999926      10.044999999999995      20.089999999999993
    66   1      4.3049999999999926      10.044999999999995      22.959999999999997
    67   1      4.3049999999999926      10.044999999999995      25.829999999999995
    68   1      4.3049999999999926      10.044999999999995      28.699999999999992
    69   1      4.3049999999999926      10.044999999999995      31.569999999999993
    70   1      4.3049999999999926      10.044999999999995      34.439999999999991
    71   1      4.3049999999999926      10.044999999999995      37.309999999999988
    72   1      4.3049999999999926      10.044999999999995      40.179999999999993
    73   1      4.3049999999999926      10.044999999999995       43.04999999999999
    74   1      4.3049999999999926      10.044999999999995      45.919999999999995
    75   1      4.3049999999999926      10.044999999999995      48.789999999999999
    76   1      4.3049999999999926      10.044999999999995      51.659999999999997
    77   1      4.3049999999999926      11.479999999999995      10.044999999999995
    78   1      4.3049999999999926      11.479999999999995      12.914999999999994
    79   1      4.3049999999999926      12.914999999999994      11.479999999999995
    80   1      4.3049999999999926      11.479999999999995      15.784999999999993
    81   1      4.3049999999999926      12.914999999999994      14.349999999999994
    82   1      4.3049999999999926      11.479999999999995       18.65499999999999
    83   1      4.3049999999999926      12.914999999999994      17.219999999999992
    84   1      4.3049999999999926      11.479999999999995      21.524999999999991
    85   1      4.3049999999999926      12.914999999999994      20.089999999999993
    86   1      4.3049999999999926      11.479999999999995      24.394999999999996
    87   1      4.3049999999999926      12.914999999999994      22.959999999999997
    88   1      4.3049999999999926      11.479999999999995       27.26499999999999
    89   1      4.3049999999999926      12.914999999999994      25.829999999999995
    90   1      4.3049999999999926      11.479999999999995      30.134999999999991
    91   1      4.3049999999999926      12.914999999999994      28.699999999999992
    92   1      4.3049999999999926      11.479999999999995      33.004999999999995
    93   1      4.3049999999999926      12.914999999999994      31.569999999999993
    94   1      4.3049999999999926      11.479999999999995      35.874999999999993
    95   1      4.3049999999999926      12.914999999999994      34.439999999999991
    96   1      4.3049999999999926      11.479999999999995       38.74499999999999
    97   1      4.3049999999999926      12.914999999999994      37.309999999999988
    98   1      4.3049999999999926      11.479999999999995      41.614999999999995
    99   1      4.3049999999999926      12.914999999999994      40.179999999999993
   100   1      4.3049999999999926      11.479999999999995      44.484999999999992
   101   1      4.3049999999999926      12.914999999999994       43.04999999999999
   102   1      4.3049999999999926      11.479999999999995      47.354999999999997
   103   1      4.3049999999999926      12.914999999999994      45.919999999999995
   104   1      4.3049999999999926      11.479999999999995      50.225000000000001
   105   1      4.3049999999999926      12.914999999999994      48.789999999999999
   106   1      4.3049999999999926      11.479999999999995      53.094999999999999
   107   1      4.3049999999999926      12.914999999999994      51.659999999999997
   108   1      4.3049999999999926      14.349999999999994      10.044999999999995
   109   1      4.3049999999999926      14.349999999999994      12.914999999999994
   110   1      4.3049999999999926      15.784999999999993      11.479999999999995
   111   1      4.3049999999999926      14.349999999999994      15.784999999999993
   112   1      4.3049999999999926      15.784999999999993      14.349999999999994
   113   1      4.3049999999999926      14.349999999999994       18.65499999999999
   114   1      4.3049999999999926      15.784999999999993      17.219999999999992
   115   1      4.3049999999999926      14.349999999999994      21.524999999999991
   116   1      4.3049999999999926      15.784999999999993      20.089999999999993
   117   1      4.3049999999999926      14.349999999999994      24.394999999999996
   118   1      4.3049999999999926      15.784999999999993      22.959999999999997
   119   1      4.3049999999999926      14.349999999999994       27.26499999999999
   120   1      4.3049999999999926      15.784999999999993      25.829999999999995
   121   1      4.3049999999999926      14.349999999999994      30.134999999999991
   122   1      4.3049999999999926      15.784999999999993      28.699999999999992
   123   1      4.3049999999999926      14.349999999999994      33.004999999999995
   124   1      4.3049999999999926      15.784999999999993      31.569999999999993
   125   1      4.3049999999999926      14.349999999999994      35.874999999999993
   126   1      4.3049999999999926      15.784999999999993      34.439999999999991
   127   1      4.3049999999999926      14.349999999999994       38.74499999999999
   128   1      4.3049999999999926      15.784999999999993      37.309999999999988
   129   1      4.3049999999999926      14.349999999999994      41.614999999999995
   130   1      4.3049999999999926      15.784999999999993      40.179999999999993
   131   1      4.3049999999999926      14.349999999999994      44.484999999999992
   132   1      4.3049999999999926      15.784999999999993       43.04999999999999
   133   1      4.3049999999999926      14.349999999999994      47.354999999999997
   134   1      4.3049999999999926      15.784999999999993      45.919999999999995
   135   1      4.3049999999999926      14.349999999999994      50.225000000000001
   136   1      4.3049999999999926      15.784999999999993      48.789999999999999
   137   1      4.3049999999999926      14.349999999999994      53.094999999999999
   138   1      4.3049999999999926      15.784999999999993      51.659999999999997
   139   1      4.3049999999999926      17.219999999999992      10.044999999999995
   140   1      4.3049999999999926      17.219999999999992      12.914999999999994
   141   1      4.3049999999999926       18.65499999999999      11.479999999999995
   142   1      4.3049999999999926      17.219999999999992      15.784999999999993
   143   1      4.3049999999999926       18.65499999999999      14.349999999999994
   144   1      2.8699999999999943      17.219999999999992      17.219999999999992
   145   1      2.8699999999999943       18.65499999999999       18.65499999999999
   146   1      4.3049999999999926      17.219999999999992       18.65499999999999
   147   1      4.3049999999999926       18.65499999999999      17.219999999999992
   148   1      2.8699999999999943      17.219999999999992      20.089999999999993
   149   1      2.8699999999999943       18.65499999999999      21.524999999999991
   150   1      4.3049999999999926      17.219999999999992      21.524999999999991
   151   1      4.3049999999999926       18.65499999999999      20.089999999999993
   152   1      2.8699999999999943      17.219999999999992      22.959999999999997
   153   1      2.8699999999999943       18.65499999999999      24.394999999999996
   154   1      4.3049999999999926      17.219999999999992      24.394999999999996
   155   1      4.3049999999999926       18.65499999999999      22.959999999999997
   156   1      2.8699999999999943      17.219999999999992      25.829999999999995
   157   1      2.8699999999999943       18.65499999999999       27.26499999999999
   158   1      4.3049999999999926      17.219999999999992       27.26499999999999
   159   1      4.3049999999999926       18.65499999999999      25.829999999999995
   160   1      2.8699999999999943      17.219999999999992      28.699999999999992
   161   1      2.8699999999999943       18.65499999999999      30.134999999999991
   162   1      4.3049999999999926      17.219999999999992      30.134999999999991
   163   1      4.3049999999999926       18.65499999999999      28.699999999999992
   164   1      2.8699999999999943      17.219999999999992      31.569999999999993
   165   1      2.8699999999999943       18.65499999999999      33.004999999999995
   166   1      4.3049999999999926      17.219999999999992      33.004999999999995
   167   1      4.3049999999999926       18.65499999999999      31.569999999999993
   168   1      2.8699999999999943      17.219999999999992      34.439999999999991
   169   1      2.8699999999999943       18.65499999999999      35.874999999999993
   170   1      4.3049999999999926      17.219999999999992      35.874999999999993
   171   1      4.3049999999999926       18.65499999999999      34.439999999999991
   172   1      2.8699999999999943      17.219999999999992      37.309999999999988
   173   1      2.8699999999999943       18.65499999999999       38.74499999999999
   174   1      4.3049999999999926      17.219999999999992       38.74499999999999
   175   1      4.3049999999999926       18.65499999999999      37.309999999999988
   176   1      2.8699999999999943      17.219999999999992      40.179999999999993
   177   1      2.8699999999999943       18.65499999999999      41.614999999999995
   178   1      4.3049999999999926      17.219999999999992      41.614999999999995
   179   1      4.3049999999999926       18.65499999999999      40.179999999999993
   180   1      2.8699999999999943      17.219999999999992       43.04999999999999
   181   1      2.8699999999999943       18.65499999999999      44.484999999999992
   182   1      4.3049999999999926      17.219999999999992      44.484999999999992
   183   1      4.3049999999999926       18.65499999999999       43.04999999999999
   184   1      2.8699999999999943      17.219999999999992      45.919999999999995
   185   1      4.3049999999999926      17.219999999999992      47.354999999999997
   186   1      4.3049999999999926       18.65499999999999      45.919999999999995
   187   1      4.3049999999999926      17.219999999999992      50.225000000000001
   188   1      4.3049999999999926       18.65499999999999      48.789999999999999
   189   1      4.3049999999999926      17.219999999999992      53.094999999999999
   190   1      4.3049999999999926       18.65499999999999      51.659999999999997
   191   1      4.3049999999999926      20.089999999999993      10.044999999999995
   192   1      4.3049999999999926      20.089999999999993      12.914999999999994
   193   1      4.3049999999999926      21.524999999999991      11.479999999999995
   194   1      4.3049999999999926      20.089999999999993      15.784999999999993
   195   1      4.3049999999999926      21.524999999999991      14.349999999999994
   196   1      2.8699999999999943      20.089999999999993      17.219999999999992
   197   1      2.8699999999999943      21.524999999999991       18.65499999999999
   198   1      4.3049999999999926      20.089999999999993       18.65499999999999
   199   1      4.3049999999999926      21.524999999999991      17.219999999999992
   200   1      2.8699999999999943      20.089999999999993      20.089999999999993
   201   1      2.8699999999999943      21.524999999999991      21.524999999999991
   202   1      4.3049999999999926      20.089999999999993      21.524999999999991
   203   1      4.3049999999999926      21.524999999999991      20.089999999999993
   204   1      2.8699999999999943      20.089999999999993      22.959999999999997
   205   1      2.8699999999999943      21.524999999999991      24.394999999999996
   206   1      4.3049999999999926      20.089999999999993      24.394999999999996
   207   1      4.3049999999999926      21.524999999999991      22.959999999999997
   208   1      2.8699999999999943      20.089999999999993      25.829999999999995
   209   1      2.8699999999999943      21.524999999999991       27.26499999999999
   210   1      4.3049999999999926      20.089999999999993       27.26499999999999
   211   1      4.3049999999999926      21.524999999999991      25.829999999999995
   212   1      2.8699999999999943      20.089999999999993      28.699999999999992
   213   1      2.8699999999999943      21.524999999999991      30.134999999999991
   214   1      4.3049999999999926      20.089999999999993      30.134999999999991
   215   1      4.3049999999999926      21.524999999999991      28.699999999999992
   216   1      2.8699999999999943      20.089999999999993      31.569999999999993
   217   1      2.8699999999999943      21.524999999999991      33.004999999999995
   218   1      4.3049999999999926      20.089999999999993      33.004999999999995
   219   1      4.3049999999999926      21.524999999999991      31.569999999999993
   220   1      2.8699999999999943      20.089999999999993      34.439999999999991
   221   1      2.8699999999999943      21.524999999999991      35.874999999999993
   222   1      4.3049999999999926      20.089999999999993      35.874999999999993
   223   1      4.3049999999999926      21.524999999999991      34.439999999999991
   224   1      2.8699999999999943      20.089999999999993      37.309999999999988
   225   1      2.8699999999999943      21.524999999999991       38.74499999999999
   226   1      4.3049999999999926      20.089999999999993       38.74499999999999
   227   1      4.3049999999999926      21.524999999999991      37.309999999999988
   228   1      2.8699999999999943      20.089999999999993      40.179999999999993
   229   1      2.8699999999999943      21.524999999999991      41.614999999999995
   230   1      4.3049999999999926      20.089999999999993      41.614999999999995
   231   1      4.3049999999999926      21.524999999999991      40.179999999999993
   232   1      2.8699999999999943      20.089999999999993       43.04999999999999
   233   1      2.8699999999999943      21.524999999999991      44.484999999999992
   234   1      4.3049999999999926      20.089999999999993      44.484999999999992
   235   1      4.3049999999999926      21.524999999999991       43.04999999999999
   236   1      2.8699999999999943      20.089999999999993      45.919999999999995
   237   1      4.3049999999999926      20.089999999999993      47.354999999999997
   238   1      4.3049999999999926      21.524999999999991      45.919999999999995
   239   1      4.3049999999999926      20.089999999999993      50.225000000000001
   240   1      4.3049999999999926      21.524999999999991      48.789999999999999
   241   1      4.3049999999999926      20.089999999999993      53.094999999999999
   242   1      4.3049999999999926      21.524999999999991      51.659999999999997
   243   1      4.3049999999999926      22.959999999999997      10.044999999999995
   244   1      4.3049999999999926      22.959999999999997      12.914999999999994
   245   1      4.3049999999999926      24.394999999999996      11.479999999999995
   246   1      4.3049999999999926      22.959999999999997      15.784999999999993
   247   1      4.3049999999999926      24.394999999999996      14.349999999999994
   248   1      2.8699999999999943      22.959999999999997      17.219999999999992
   249   1      2.8699999999999943      24.394999999999996       18.65499999999999
   250   1      4.3049999999999926      22.959999999999997       18.65499999999999
   251   1      4.3049999999999926      24.394999999999996      17.219999999999992
   252   1      2.8699999999999943      22.959999999999997      20.089999999999993
   253   1      2.8699999999999943      24.394999999999996      21.524999999999991
   254   1      4.3049999999999926      22.959999999999997      21.524999999999991
   255   1      4.3049999999999926      24.394999999999996      20.089999999999993
   256   1      2.8699999999999943      22.959999999999997      22.959999999999997
   257   1      2.8699999999999943      24.394999999999996      24.394999999999996
   258   1      4.3049999999999926      22.959999999999997      24.394999999999996
   259   1      4.3049999999999926      24.394999999999996      22.959999999999997
   260   1      2.8699999999999943      22.959999999999997      25.829999999999995
   261   1      2.8699999999999943      24.394999999999996       27.26499999999999
   262   1      4.3049999999999926      22.959999999999997       27.26499999999999
   263   1      4.3049999999999926      24.394999999999996      25.829999999999995
   264   1      2.8699999999999943      22.959999999999997      28.699999999999992
   265   1      2.8699999999999943      24.394999999999996      30.134999999999991
   266   1      4.3049999999999926      22.959999999999997      30.134999999999991
   267   1      4.3049999999999926      24.394999999999996      28.699999999999992
   268   1      2.8699999999999943      22.959999999999997      31.569999999999993
   269   1      2.8699999999999943      24.394999999999996      33.004999999999995
   270   1      4.3049999999999926      22.959999999999997      33.004999999999995
   271   1      4.3049999999999926      24.394999999999996      31.569999999999993
   272   1      2.8699999999999943      22.959999999999997      34.439999999999991
   273   1      2.8699999999999943      24.394999999999996      35.874999999999993
   274   1      4.3049999999999926      22.959999999999997      35.874999999999993
   275   1      4.3049999999999926      24.394999999999996      34.439999999999991
   276   1      2.8699999999999943      22.959999999999997      37.309999999999988
   277   1      2.8699999999999943      24.394999999999996       38.74499999999999
   278   1      4.3049999999999926      22.959999999999997       38.74499999999999
   279   1      4.3049999999999926      24.394999999999996      37.309999999999988
   280   1      2.8699999999999943      22.959999999999997      40.179999999999993
   281   1      2.8699999999999943      24.394999999999996      41.614999999999995
   282   1      4.3049999999999926      22.959999999999997      41.614999999999995
   283   1      4.3049999999999926      24.394999999999996      40.179999999999993
   284   1      2.8699999999999943      22.959999999999997       43.04999999999999
   285   1      2.8699999999999943      24.394999999999996      44.484999999999992
   286   1      4.3049999999999926      22.959999999999997      44.484999999999992
   287   1      4.3049999999999926      24.394999999999996       43.04999999999999
   288   1      2.8699999999999943      22.959999999999997      45.919999999999995
   289   1      4.3049999999999926      22.959999999999997      47.354999999999997
   290   1      4.3049999999999926      24.394999999999996      45.919999999999995
   291   1      4.3049999999999926      22.959999999999997      50.225000000000001
   292   1      4.3049999999999926      24.394999999999996      48.789999999999999
   293   1      4.3049999999999926      22.959999999999997      53.094999999999999
   294   1      4.3049999999999926      24.394999999999996      51.659999999999997
   295   1      4.3049999999999926      25.829999999999995      10.044999999999995
   296   1      4.3049999999999926      25.829999999999995      12.914999999999994
   297   1      4.3049999999999926       27.26499999999999      11.479999999999995
   298   1      4.3049999999999926      25.829999999999995      15.784999999999993
   299   1      4.3049999999999926       27.26499999999999      14.349999999999994
   300   1      2.8699999999999943      25.829999999999995      17.219999999999992
   301   1      2.8699999999999943       27.26499999999999       18.65499999999999
   302   1      4.3049999999999926      25.829999999999995       18.65499999999999
   303   1      4.3049999999999926       27.26499999999999      17.219999999999992
   304   1      2.8699999999999943      25.829999999999995      20.089999999999993
   305   1      2.8699999999999943       27.26499999999999      21.524999999999991
   306   1      4.3049999999999926      25.829999999999995      21.524999999999991
   307   1      4.3049999999999926       27.26499999999999      20.089999999999993
   308   1      2.8699999999999943      25.829999999999995      22.959999999999997
   309   1      2.8699999999999943       27.26499999999999      24.394999999999996
   310   1      4.3049999999999926      25.829999999999995      24.394999999999996
   311   1      4.3049999999999926       27.26499999999999      22.959999999999997
   312   1      2.8699999999999943      25.829999999999995      25.829999999999995
   313   1      2.8699999999999943       27.26499999999999       27.26499999999999
   314   1      4.3049999999999926      25.829999999999995       27.26499999999999
   315   1      4.3049999999999926       27.26499999999999      25.829999999999995
   316   1      2.8699999999999943      25.829999999999995      28.699999999999992
   317   1      2.8699999999999943       27.26499999999999      30.134999999999991
   318   1      4.3049999999999926      25.829999999999995      30.134999999999991
   319   1      4.3049999999999926       27.26499999999999      28.699999999999992
   320   1      2.8699999999999943      25.829999999999995      31.569999999999993
   321   1      2.8699999999999943       27.26499999999999      33.004999999999995
   322   1      4.3049999999999926      25.829999999999995      33.004999999999995
   323   1      4.3049999999999926       27.26499999999999      31.569999999999993
   324   1      2.8699999999999943      25.829999999999995      34.439999999999991
   325   1      2.8699999999999943       27.26499999999999      35.874999999999993
   326   1      4.3049999999999926      25.829999999999995      35.874999999999993
   327   1      4.3049999999999926       27.26499999999999      34.439999999999991
   328   1      2.8699999999999943      25.829999999999995      37.309999999999988
   329   1      2.8699999999999943       27.26499999999999       38.74499999999999
   330   1      4.3049999999999926      25.829999999999995       38.74499999999999
   331   1      4.3049999999999926       27.26499999999999      37.309999999999988
   332   1      2.8699999999999943      25.829999999999995      40.179999999999993
   333   1      2.8699999999999943       27.26499999999999      41.614999999999995
   334   1      4.3049999999999926      25.829999999999995      41.614999999999995
   335   1      4.3049999999999926       27.26499999999999      40.179999999999993
   336   1      2.8699999999999943      25.829999999999995       43.04999999999999
   337   1      2.8699999999999943       27.26499999999999      44.484999999999992
   338   1      4.3049999999999926      25.829999999999995      44.484999999999992
   339   1      4.3049999999999926       27.26499999999999       43.04999999999999
   340   1      2.8699999999999943      25.829999999999995      45.919999999999995
   341   1      4.3049999999999926      25.829999999999995      47.354999999999997
   342   1      4.3049999999999926       27.26499999999999      45.919999999999995
   343   1      4.3049999999999926      25.829999999999995      50.225000000000001
   344   1      4.3049999999999926       27.26499999999999      48.789999999999999
   345   1      4.3049999999999926      25.829999999999995      53.094999999999999
   346   1      4.3049999999999926       27.26499999999999      51.659999999999997
   347   1      4.3049999999999926      28.699999999999992      10.044999999999995
   348   1      4.3049999999999926      28.699999999999992      12.914999999999994
   349   1      4.3049999999999926      30.134999999999991      11.479999999999995
   350   1      4.3049999999999926      28.699999999999992      15.784999999999993
   351   1      4.3049999999999926      30.134999999999991      14.349999999999994
   352   1      2.8699999999999943      28.699999999999992      17.219999999999992
   353   1      2.8699999999999943      30.134999999999991       18.65499999999999
   354   1      4.3049999999999926      28.699999999999992       18.65499999999999
   355   1      4.3049999999999926      30.134999999999991      17.219999999999992
   356   1      2.8699999999999943      28.699999999999992      20.089999999999993
   357   1      2.8699999999999943      30.134999999999991      21.524999999999991
   358   1      4.3049999999999926      28.699999999999992      21.524999999999991