model_files/PdCu/PdCu_30000/PdCu_320/PdCu_320_fcc_29879_temp.data (written by ASE) 

29879 	 atoms 
2  atom types
0.0                      98  xlo xhi
0.0                      98  ylo yhi
0.0                      98  zlo zhi


Atoms 

     1   1      1.8874999999999955      43.412499999999987       45.29999999999999
     2   1      1.8874999999999955      43.412499999999987      49.074999999999989
     3   1      1.8874999999999955      43.412499999999987      52.849999999999987
     4   1      1.8874999999999955       45.29999999999999      43.412499999999987
     5   1      97.999999999999986       45.29999999999999       45.29999999999999
     6   1      97.999999999999986      47.187499999999986      47.187499999999986
     7   1      1.8874999999999955       45.29999999999999      47.187499999999986
     8   1      1.8874999999999955      47.187499999999986       45.29999999999999
     9   1      97.999999999999986       45.29999999999999      49.074999999999989
    10   1      97.999999999999986      47.187499999999986      50.962499999999999
    11   1      1.8874999999999955       45.29999999999999      50.962499999999999
    12   1      1.8874999999999955      47.187499999999986      49.074999999999989
    13   1      97.999999999999986       45.29999999999999      52.849999999999987
    14   1      1.8874999999999955       45.29999999999999      54.737499999999997
    15   1      1.8874999999999955      47.187499999999986      52.849999999999987
    16   1      1.8874999999999955      49.074999999999989      43.412499999999987
    17   1      97.999999999999986      49.074999999999989       45.29999999999999
    18   1      97.999999999999986      50.962499999999999      47.187499999999986
    19   1      1.8874999999999955      49.074999999999989      47.187499999999986
    20   1      1.8874999999999955      50.962499999999999       45.29999999999999
    21   1      97.999999999999986      49.074999999999989      49.074999999999989
    22   1      97.999999999999986      50.962499999999999      50.962499999999999
    23   1      1.8874999999999955      49.074999999999989      50.962499999999999
    24   1      1.8874999999999955      50.962499999999999      49.074999999999989
    25   1      97.999999999999986      49.074999999999989      52.849999999999987
    26   1      1.8874999999999955      49.074999999999989      54.737499999999997
    27   1      1.8874999999999955      50.962499999999999      52.849999999999987
    28   1      1.8874999999999955      52.849999999999987      43.412499999999987
    29   1      97.999999999999986      52.849999999999987       45.29999999999999
    30   1      1.8874999999999955      52.849999999999987      47.187499999999986
    31   1      1.8874999999999955      54.737499999999997       45.29999999999999
    32   1      97.999999999999986      52.849999999999987      49.074999999999989
    33   1      1.8874999999999955      52.849999999999987      50.962499999999999
    34   1      1.8874999999999955      54.737499999999997      49.074999999999989
    35   1      97.999999999999986      52.849999999999987      52.849999999999987
    36   1      1.8874999999999955      52.849999999999987      54.737499999999997
    37   1      1.8874999999999955      54.737499999999997      52.849999999999987
    38   1       3.774999999999991      39.637499999999996      39.637499999999996
    39   1      5.6624999999999934      37.749999999999993      39.637499999999996
    40   1      5.6624999999999934      39.637499999999996      37.749999999999993
    41   1       3.774999999999991      39.637499999999996      43.412499999999987
    42   1      5.6624999999999934      37.749999999999993      43.412499999999987
    43   1      5.6624999999999934      39.637499999999996      41.524999999999991
    44   1       3.774999999999991      39.637499999999996      47.187499999999986
    45   1      5.6624999999999934      37.749999999999993      47.187499999999986
    46   1      5.6624999999999934      39.637499999999996       45.29999999999999
    47   1       3.774999999999991      39.637499999999996      50.962499999999999
    48   1      5.6624999999999934      37.749999999999993      50.962499999999999
    49   1      5.6624999999999934      39.637499999999996      49.074999999999989
    50   1       3.774999999999991      39.637499999999996      54.737499999999997
    51   1      5.6624999999999934      37.749999999999993      54.737499999999997
    52   1      5.6624999999999934      39.637499999999996      52.849999999999987
    53   1       3.774999999999991      39.637499999999996      58.512499999999996
    54   1      5.6624999999999934      37.749999999999993      58.512499999999996
    55   1      5.6624999999999934      39.637499999999996      56.624999999999986
    56   1      5.6624999999999934      39.637499999999996      60.399999999999984
    57   1       3.774999999999991      43.412499999999987      39.637499999999996
    58   1      5.6624999999999934      41.524999999999991      39.637499999999996
    59   1      5.6624999999999934      43.412499999999987      37.749999999999993
    60   1       3.774999999999991      41.524999999999991      41.524999999999991
    61   1       3.774999999999991      43.412499999999987      43.412499999999987
    62   1      5.6624999999999934      41.524999999999991      43.412499999999987
    63   1      5.6624999999999934      43.412499999999987      41.524999999999991
    64   1       3.774999999999991      41.524999999999991       45.29999999999999
    65   1       3.774999999999991      43.412499999999987      47.187499999999986
    66   1      5.6624999999999934      41.524999999999991      47.187499999999986
    67   1      5.6624999999999934      43.412499999999987       45.29999999999999
    68   1       3.774999999999991      41.524999999999991      49.074999999999989
    69   1       3.774999999999991      43.412499999999987      50.962499999999999
    70   1      5.6624999999999934      41.524999999999991      50.962499999999999
    71   1      5.6624999999999934      43.412499999999987      49.074999999999989
    72   1       3.774999999999991      41.524999999999991      52.849999999999987
    73   1       3.774999999999991      43.412499999999987      54.737499999999997
    74   1      5.6624999999999934      41.524999999999991      54.737499999999997
    75   1      5.6624999999999934      43.412499999999987      52.849999999999987
    76   1       3.774999999999991      41.524999999999991      56.624999999999986
    77   1       3.774999999999991      43.412499999999987      58.512499999999996
    78   1      5.6624999999999934      41.524999999999991      58.512499999999996
    79   1      5.6624999999999934      43.412499999999987      56.624999999999986
    80   1      5.6624999999999934      43.412499999999987      60.399999999999984
    81   1       3.774999999999991      47.187499999999986      39.637499999999996
    82   1      5.6624999999999934       45.29999999999999      39.637499999999996
    83   1      5.6624999999999934      47.187499999999986      37.749999999999993
    84   1       3.774999999999991       45.29999999999999      41.524999999999991
    85   1       3.774999999999991      47.187499999999986      43.412499999999987
    86   1      5.6624999999999934       45.29999999999999      43.412499999999987
    87   1      5.6624999999999934      47.187499999999986      41.524999999999991
    88   1       3.774999999999991       45.29999999999999       45.29999999999999
    89   1       3.774999999999991      47.187499999999986      47.187499999999986
    90   1      5.6624999999999934       45.29999999999999      47.187499999999986
    91   1      5.6624999999999934      47.187499999999986       45.29999999999999
    92   1       3.774999999999991       45.29999999999999      49.074999999999989
    93   1       3.774999999999991      47.187499999999986      50.962499999999999
    94   1      5.6624999999999934       45.29999999999999      50.962499999999999
    95   1      5.6624999999999934      47.187499999999986      49.074999999999989
    96   1       3.774999999999991       45.29999999999999      52.849999999999987
    97   1       3.774999999999991      47.187499999999986      54.737499999999997
    98   1      5.6624999999999934       45.29999999999999      54.737499999999997
    99   1      5.6624999999999934      47.187499999999986      52.849999999999987
   100   1       3.774999999999991       45.29999999999999      56.624999999999986
   101   1       3.774999999999991      47.187499999999986      58.512499999999996
   102   1      5.6624999999999934       45.29999999999999      58.512499999999996
   103   1      5.6624999999999934      47.187499999999986      56.624999999999986
   104   1      5.6624999999999934      47.187499999999986      60.399999999999984
   105   1       3.774999999999991      50.962499999999999      39.637499999999996
   106   1      5.6624999999999934      49.074999999999989      39.637499999999996
   107   1      5.6624999999999934      50.962499999999999      37.749999999999993
   108   1       3.774999999999991      49.074999999999989      41.524999999999991
   109   1       3.774999999999991      50.962499999999999      43.412499999999987
   110   1      5.6624999999999934      49.074999999999989      43.412499999999987
   111   1      5.6624999999999934      50.962499999999999      41.524999999999991
   112   1       3.774999999999991      49.074999999999989       45.29999999999999
   113   1       3.774999999999991      50.962499999999999      47.187499999999986
   114   1      5.6624999999999934      49.074999999999989      47.187499999999986
   115   1      5.6624999999999934      50.962499999999999       45.29999999999999
   116   1       3.774999999999991      49.074999999999989      49.074999999999989
   117   1       3.774999999999991      50.962499999999999      50.962499999999999
   118   1      5.6624999999999934      49.074999999999989      50.962499999999999
   119   1      5.6624999999999934      50.962499999999999      49.074999999999989
   120   1       3.774999999999991      49.074999999999989      52.849999999999987
   121   1       3.774999999999991      50.962499999999999      54.737499999999997
   122   1      5.6624999999999934      49.074999999999989      54.737499999999997
   123   1      5.6624999999999934      50.962499999999999      52.849999999999987
   124   1       3.774999999999991      49.074999999999989      56.624999999999986
   125   1       3.774999999999991      50.962499999999999      58.512499999999996
   126   1      5.6624999999999934      49.074999999999989      58.512499999999996
   127   1      5.6624999999999934      50.962499999999999      56.624999999999986
   128   1      5.6624999999999934      50.962499999999999      60.399999999999984
   129   1       3.774999999999991      54.737499999999997      39.637499999999996
   130   1      5.6624999999999934      52.849999999999987      39.637499999999996
   131   1      5.6624999999999934      54.737499999999997      37.749999999999993
   132   1       3.774999999999991      52.849999999999987      41.524999999999991
   133   1       3.774999999999991      54.737499999999997      43.412499999999987
   134   1      5.6624999999999934      52.849999999999987      43.412499999999987
   135   1      5.6624999999999934      54.737499999999997      41.524999999999991
   136   1       3.774999999999991      52.849999999999987       45.29999999999999
   137   1       3.774999999999991      54.737499999999997      47.187499999999986
   138   1      5.6624999999999934      52.849999999999987      47.187499999999986
   139   1      5.6624999999999934      54.737499999999997       45.29999999999999
   140   1       3.774999999999991      52.849999999999987      49.074999999999989
   141   1       3.774999999999991      54.737499999999997      50.962499999999999
   142   1      5.6624999999999934      52.849999999999987      50.962499999999999
   143   1      5.6624999999999934      54.737499999999997      49.074999999999989
   144   1       3.774999999999991      52.849999999999987      52.849999999999987
   145   1       3.774999999999991      54.737499999999997      54.737499999999997
   146   1      5.6624999999999934      52.849999999999987      54.737499999999997
   147   1      5.6624999999999934      54.737499999999997      52.849999999999987
   148   1       3.774999999999991      52.849999999999987      56.624999999999986
   149   1       3.774999999999991      54.737499999999997      58.512499999999996
   150   1      5.6624999999999934      52.849999999999987      58.512499999999996
   151   1      5.6624999999999934      54.737499999999997      56.624999999999986
   152   1      5.6624999999999934      54.737499999999997      60.399999999999984
   153   1       3.774999999999991      58.512499999999996      39.637499999999996
   154   1      5.6624999999999934      56.624999999999986      39.637499999999996
   155   1      5.6624999999999934      58.512499999999996      37.749999999999993
   156   1       3.774999999999991      56.624999999999986      41.524999999999991
   157   1       3.774999999999991      58.512499999999996      43.412499999999987
   158   1      5.6624999999999934      56.624999999999986      43.412499999999987
   159   1      5.6624999999999934      58.512499999999996      41.524999999999991
   160   1       3.774999999999991      56.624999999999986       45.29999999999999
   161   1       3.774999999999991      58.512499999999996      47.187499999999986
   162   1      5.6624999999999934      56.624999999999986      47.187499999999986
   163   1      5.6624999999999934      58.512499999999996       45.29999999999999
   164   1       3.774999999999991      56.624999999999986      49.074999999999989
   165   1       3.774999999999991      58.512499999999996      50.962499999999999
   166   1      5.6624999999999934      56.624999999999986      50.962499999999999
   167   1      5.6624999999999934      58.512499999999996      49.074999999999989
   168   1       3.774999999999991      56.624999999999986      52.849999999999987
   169   1       3.774999999999991      58.512499999999996      54.737499999999997
   170   1      5.6624999999999934      56.624999999999986      54.737499999999997
   171   1      5.6624999999999934      58.512499999999996      52.849999999999987
   172   1       3.774999999999991      56.624999999999986      56.624999999999986
   173   1       3.774999999999991      58.512499999999996      58.512499999999996
   174   1      5.6624999999999934      56.624999999999986      58.512499999999996
   175   1      5.6624999999999934      58.512499999999996      56.624999999999986
   176   1      5.6624999999999934      58.512499999999996      60.399999999999984
   177   1      5.6624999999999934      60.399999999999984      39.637499999999996
   178   1      5.6624999999999934      60.399999999999984      43.412499999999987
   179   1      5.6624999999999934      60.399999999999984      47.187499999999986
   180   1      5.6624999999999934      60.399999999999984      50.962499999999999
   181   1      5.6624999999999934      60.399999999999984      54.737499999999997
   182   1      5.6624999999999934      60.399999999999984      58.512499999999996
   183   1      9.4374999999999929      32.087499999999999      33.974999999999994
   184   1      9.4374999999999929      32.087499999999999      37.749999999999993
   185   1      9.4374999999999929      32.087499999999999      41.524999999999991
   186   1      9.4374999999999929      32.087499999999999       45.29999999999999
   187   1      9.4374999999999929      32.087499999999999      49.074999999999989
   188   1      9.4374999999999929      32.087499999999999      52.849999999999987
   189   1      9.4374999999999929      32.087499999999999      56.624999999999986
   190   1      9.4374999999999929      32.087499999999999      60.399999999999984
   191   1      9.4374999999999929      32.087499999999999      64.174999999999997
   192   1      9.4374999999999929      33.974999999999994      32.087499999999999
   193   1      7.5499999999999901      33.974999999999994      33.974999999999994
   194   1      7.5499999999999901      35.862499999999997      35.862499999999997
   195   1      9.4374999999999929      33.974999999999994      35.862499999999997
   196   1      9.4374999999999929      35.862499999999997      33.974999999999994
   197   1      7.5499999999999901      33.974999999999994      37.749999999999993
   198   1      7.5499999999999901      35.862499999999997      39.637499999999996
   199   1      9.4374999999999929      33.974999999999994      39.637499999999996
   200   1      9.4374999999999929      35.862499999999997      37.749999999999993
   201   1      7.5499999999999901      33.974999999999994      41.524999999999991
   202   1      7.5499999999999901      35.862499999999997      43.412499999999987
   203   1      9.4374999999999929      33.974999999999994      43.412499999999987
   204   1      9.4374999999999929      35.862499999999997      41.524999999999991
   205   1      7.5499999999999901      33.974999999999994       45.29999999999999
   206   1      7.5499999999999901      35.862499999999997      47.187499999999986
   207   1      9.4374999999999929      33.974999999999994      47.187499999999986
   208   1      9.4374999999999929      35.862499999999997       45.29999999999999
   209   1      7.5499999999999901      33.974999999999994      49.074999999999989
   210   1      7.5499999999999901      35.862499999999997      50.962499999999999
   211   1      9.4374999999999929      33.974999999999994      50.962499999999999
   212   1      9.4374999999999929      35.862499999999997      49.074999999999989
   213   1      7.5499999999999901      33.974999999999994      52.849999999999987
   214   1      7.5499999999999901      35.862499999999997      54.737499999999997
   215   1      9.4374999999999929      33.974999999999994      54.737499999999997
   216   1      9.4374999999999929      35.862499999999997      52.849999999999987
   217   1      7.5499999999999901      33.974999999999994      56.624999999999986
   218   1      7.5499999999999901      35.862499999999997      58.512499999999996
   219   1      9.4374999999999929      33.974999999999994      58.512499999999996
   220   1      9.4374999999999929      35.862499999999997      56.624999999999986
   221   1      7.5499999999999901      33.974999999999994      60.399999999999984
   222   1      7.5499999999999901      35.862499999999997      62.287499999999994
   223   1      9.4374999999999929      33.974999999999994      62.287499999999994
   224   1      9.4374999999999929      35.862499999999997      60.399999999999984
   225   1      7.5499999999999901      33.974999999999994      64.174999999999997
   226   1      9.4374999999999929      33.974999999999994                 66.0625
   227   1      9.4374999999999929      35.862499999999997      64.174999999999997
   228   1      9.4374999999999929      37.749999999999993      32.087499999999999
   229   1      7.5499999999999901      37.749999999999993      33.974999999999994
   230   1      7.5499999999999901      39.637499999999996      35.862499999999997
   231   1      9.4374999999999929      37.749999999999993      35.862499999999997
   232   1      9.4374999999999929      39.637499999999996      33.974999999999994
   233   1      7.5499999999999901      37.749999999999993      37.749999999999993
   234   1      7.5499999999999901      39.637499999999996      39.637499999999996
   235   1      9.4374999999999929      37.749999999999993      39.637499999999996
   236   1      9.4374999999999929      39.637499999999996      37.749999999999993
   237   1      7.5499999999999901      37.749999999999993      41.524999999999991
   238   1      7.5499999999999901      39.637499999999996      43.412499999999987
   239   1      9.4374999999999929      37.749999999999993      43.412499999999987
   240   1      9.4374999999999929      39.637499999999996      41.524999999999991
   241   1      7.5499999999999901      37.749999999999993       45.29999999999999
   242   1      7.5499999999999901      39.637499999999996      47.187499999999986
   243   1      9.4374999999999929      37.749999999999993      47.187499999999986
   244   1      9.4374999999999929      39.637499999999996       45.29999999999999
   245   1      7.5499999999999901      37.749999999999993      49.074999999999989
   246   1      7.5499999999999901      39.637499999999996      50.962499999999999
   247   1      9.4374999999999929      37.749999999999993      50.962499999999999
   248   1      9.4374999999999929      39.637499999999996      49.074999999999989
   249   1      7.5499999999999901      37.749999999999993      52.849999999999987
   250   1      7.5499999999999901      39.637499999999996      54.737499999999997
   251   1      9.4374999999999929      37.749999999999993      54.737499999999997
   252   1      9.4374999999999929      39.637499999999996      52.849999999999987
   253   1      7.5499999999999901      37.749999999999993      56.624999999999986
   254   1      7.5499999999999901      39.637499999999996      58.512499999999996
   255   1      9.4374999999999929      37.749999999999993      58.512499999999996
   256   1      9.4374999999999929      39.637499999999996      56.624999999999986
   257   1      7.5499999999999901      37.749999999999993      60.399999999999984
   258   1      7.5499999999999901      39.637499999999996      62.287499999999994
   259   1      9.4374999999999929      37.749999999999993      62.287499999999994
   260   1      9.4374999999999929      39.637499999999996      60.399999999999984
   261   1      7.5499999999999901      37.749999999999993      64.174999999999997
   262   1      9.4374999999999929      37.749999999999993                 66.0625
   263   1      9.4374999999999929      39.637499999999996      64.174999999999997
   264   1      9.4374999999999929      41.524999999999991      32.087499999999999
   265   1      7.5499999999999901      41.524999999999991      33.974999999999994
   266   1      7.5499999999999901      43.412499999999987      35.862499999999997
   267   1      9.4374999999999929      41.524999999999991      35.862499999999997
   268   1      9.4374999999999929      43.412499999999987      33.974999999999994
   269   1      7.5499999999999901      41.524999999999991      37.749999999999993
   270   1      7.5499999999999901      43.412499999999987      39.637499999999996
   271   1      9.4374999999999929      41.524999999999991      39.637499999999996
   272   1      9.4374999999999929      43.412499999999987      37.749999999999993
   273   1      7.5499999999999901      41.524999999999991      41.524999999999991
   274   1      7.5499999999999901      43.412499999999987      43.412499999999987
   275   1      9.4374999999999929      41.524999999999991      43.412499999999987
   276   1      9.4374999999999929      43.412499999999987      41.524999999999991
   277   1      7.5499999999999901      41.524999999999991       45.29999999999999
   278   1      7.5499999999999901      43.412499999999987      47.187499999999986
   279   1      9.4374999999999929      41.524999999999991      47.187499999999986
   280   1      9.4374999999999929      43.412499999999987       45.29999999999999
   281   1      7.5499999999999901      41.524999999999991      49.074999999999989
   282   1      7.5499999999999901      43.412499999999987      50.962499999999999
   283   1      9.4374999999999929      41.524999999999991      50.962499999999999
   284   1      9.4374999999999929      43.412499999999987      49.074999999999989
   285   1      7.5499999999999901      41.524999999999991      52.849999999999987
   286   1      7.5499999999999901      43.412499999999987      54.737499999999997
   287   1      9.4374999999999929      41.524999999999991      54.737499999999997
   288   1      9.4374999999999929      43.412499999999987      52.849999999999987
   289   1      7.5499999999999901      41.524999999999991      56.624999999999986
   290   1      7.5499999999999901      43.412499999999987      58.512499999999996
   291   1      9.4374999999999929      41.524999999999991      58.512499999999996
   292   1      9.4374999999999929      43.412499999999987      56.624999999999986
   293   1      7.5499999999999901      41.524999999999991      60.399999999999984
   294   1      7.5499999999999901      43.412499999999987      62.287499999999994
   295   1      9.4374999999999929      41.524999999999991      62.287499999999994
   296   1      9.4374999999999929      43.412499999999987      60.399999999999984
   297   1      7.5499999999999901      41.524999999999991      64.174999999999997
   298   1      9.4374999999999929      41.524999999999991                 66.0625
   299   1      9.4374999999999929      43.412499999999987      64.174999999999997
   300   1      9.4374999999999929       45.29999999999999      32.087499999999999
   301   1      7.5499999999999901       45.29999999999999      33.974999999999994
   302   1      7.5499999999999901      47.187499999999986      35.862499999999997
   303   1      9.4374999999999929       45.29999999999999      35.862499999999997
   304   1      9.4374999999999929      47.187499999999986      33.974999999999994
   305   1      7.5499999999999901       45.29999999999999      37.749999999999993
   306   1      7.5499999999999901      47.187499999999986      39.637499999999996
   307   1      9.4374999999999929       45.29999999999999      39.637499999999996
   308   1      9.4374999999999929      47.187499999999986      37.749999999999993
   309   1      7.5499999999999901       45.29999999999999      41.524999999999991
   310   1      7.5499999999999901      47.187499999999986      43.412499999999987
   311   1      9.4374999999999929       45.29999999999999      43.412499999999987
   312   1      9.4374999999999929      47.187499999999986      41.524999999999991
   313   1      7.5499999999999901       45.29999999999999       45.29999999999999
   314   1      7.5499999999999901      47.187499999999986      47.187499999999986
   315   1      9.4374999999999929       45.29999999999999      47.187499999999986
   316   1      9.4374999999999929      47.187499999999986       45.29999999999999
   317   1      7.5499999999999901       45.29999999999999      49.074999999999989
   318   1      7.5499999999999901      47.187499999999986      50.962499999999999
   319   1      9.4374999999999929       45.29999999999999      50.962499999999999
   320   1      9.4374999999999929      47.187499999999986      49.074999999999989
   321   1      7.5499999999999901       45.29999999999999      52.849999999999987
   322   1      7.5499999999999901      47.187499999999986      54.737499999999997
   323   1      9.4374999999999929       45.29999999999999      54.737499999999997
   324   1      9.4374999999999929      47.187499999999986      52.849999999999987
   325   1      7.5499999999999901       45.29999999999999      56.624999999999986
   326   1      7.5499999999999901      47.187499999999986      58.512499999999996
   327   1      9.4374999999999929       45.29999999999999      58.512499999999996
   328   1      9.4374999999999929      47.187499999999986      56.624999999999986
   329   1      7.5499999999999901       45.29999999999999      60.399999999999984
   330   1      7.5499999999999901      47.187499999999986      62.287499999999994
   331   1      9.4374999999999929       45.29999999999999      62.287499999999994
   332   1      9.4374999999999929      47.187499999999986      60.399999999999984
   333   1      7.5499999999999901       45.29999999999999      64.174999999999997
   334   1      9.4374999999999929       45.29999999999999                 66.0625
   335   1      9.4374999999999929      47.187499999999986      64.174999999999997
   336   1      9.4374999999999929      49.074999999999989      32.087499999999999
   337   1      7.5499999999999901      49.074999999999989      33.974999999999994
   338   1      7.5499999999999901      50.962499999999999      35.862499999999997
   339   1      9.4374999999999929      49.074999999999989      35.862499999999997
   340   1      9.4374999999999929      50.962499999999999      33.974999999999994
   341   1      7.5499999999999901      49.074999999999989      37.749999999999993
   342   1      7.5499999999999901      50.962499999999999      39.637499999999996
   343   1      9.4374999999999929      49.074999999999989      39.637499999999996
   344   1      9.4374999999999929      50.962499999999999      37.749999999999993
   345   1      7.5499999999999901      49.074999999999989      41.524999999999991
   346   1      7.5499999999999901      50.962499999999999      43.412499999999987
   347   1      9.4374999999999929      49.074999999999989      43.412499999999987
   348   1      9.4374999999999929      50.962499999999999      41.524999999999991
   349   1      7.5499999999999901      49.074999999999989       45.29999999999999
   350   1      7.5499999999999901      50.962499999999999      47.187499999999986
   351   1      9.4374999999999929      49.074999999999989      47.187499999999986
   352   1      9.4374999999999929      50.962499999999999       45.29999999999999
   353   1      7.5499999999999901      49.074999999999989      49.074999999999989
   354   1      7.5499999999999901      50.962499999999999      50.962499999999999
   355   1      9.4374999999999929      49.074999999999989      50.962499999999999
   356   1      9.4374999999999929      50.962499999999999      49.074999999999989
   357   1      7.5499999999999901      49.074999999999989      52.849999999999987
   358   1      7.5499999999999901      50.962499999999999      54.737499999999997