model_files/NiCoCrFeMn/NiCoCrFeMn_30000/NiCoCrFeMn_521/NiCoCrFeMn_521_fcc_30329_temp.data (written by ASE) 

30329 	 atoms 
5  atom types
0.0                      91  xlo xhi
0.0                      91  ylo yhi
0.0                      91  zlo zhi


Atoms 

     1   1                       0      43.140000000000008                 44.9375
     2   1                       0                 44.9375      43.140000000000008
     3   1                       0                 44.9375      46.734999999999999
     4   1                       0      46.734999999999999                 44.9375
     5   1      3.5949999999999993      34.152500000000003      43.140000000000008
     6   1      3.5949999999999993      35.950000000000003      41.342500000000008
     7   1      3.5949999999999993      34.152500000000003      46.734999999999999
     8   1      3.5949999999999993      35.950000000000003                 44.9375
     9   1      3.5949999999999993      35.950000000000003      48.532500000000006
    10   1      3.5949999999999993      37.747500000000009      39.545000000000002
    11   1      3.5949999999999993      39.545000000000002      37.747500000000009
    12   1      1.7974999999999997      39.545000000000002      43.140000000000008
    13   1      3.5949999999999993      37.747500000000009      43.140000000000008
    14   1      3.5949999999999993      39.545000000000002      41.342500000000008
    15   1      1.7974999999999997      37.747500000000009                 44.9375
    16   1      1.7974999999999997      39.545000000000002      46.734999999999999
    17   1      3.5949999999999993      37.747500000000009      46.734999999999999
    18   1      3.5949999999999993      39.545000000000002                 44.9375
    19   1      3.5949999999999993      37.747500000000009      50.330000000000005
    20   1      3.5949999999999993      39.545000000000002      48.532500000000006
    21   1      3.5949999999999993      39.545000000000002      52.127500000000012
    22   1      3.5949999999999993      41.342500000000008      35.950000000000003
    23   1      3.5949999999999993      43.140000000000008      34.152500000000003
    24   1      1.7974999999999997      43.140000000000008      39.545000000000002
    25   1      3.5949999999999993      41.342500000000008      39.545000000000002
    26   1      3.5949999999999993      43.140000000000008      37.747500000000009
    27   1      1.7974999999999997      41.342500000000008      41.342500000000008
    28   1      1.7974999999999997      43.140000000000008      43.140000000000008
    29   1      3.5949999999999993      41.342500000000008      43.140000000000008
    30   1      3.5949999999999993      43.140000000000008      41.342500000000008
    31   1      1.7974999999999997      41.342500000000008                 44.9375
    32   1      1.7974999999999997      43.140000000000008      46.734999999999999
    33   1      3.5949999999999993      41.342500000000008      46.734999999999999
    34   1      3.5949999999999993      43.140000000000008                 44.9375
    35   1      1.7974999999999997      41.342500000000008      48.532500000000006
    36   1      1.7974999999999997      43.140000000000008      50.330000000000005
    37   1      3.5949999999999993      41.342500000000008      50.330000000000005
    38   1      3.5949999999999993      43.140000000000008      48.532500000000006
    39   1      3.5949999999999993      41.342500000000008      53.925000000000011
    40   1      3.5949999999999993      43.140000000000008      52.127500000000012
    41   1      3.5949999999999993      43.140000000000008      55.722500000000011
    42   1      3.5949999999999993                 44.9375      35.950000000000003
    43   1      3.5949999999999993      46.734999999999999      34.152500000000003
    44   1      1.7974999999999997                 44.9375      37.747500000000009
    45   1      1.7974999999999997      46.734999999999999      39.545000000000002
    46   1      3.5949999999999993                 44.9375      39.545000000000002
    47   1      3.5949999999999993      46.734999999999999      37.747500000000009
    48   1      1.7974999999999997                 44.9375      41.342500000000008
    49   1      1.7974999999999997      46.734999999999999      43.140000000000008
    50   1      3.5949999999999993                 44.9375      43.140000000000008
    51   1      3.5949999999999993      46.734999999999999      41.342500000000008
    52   1      1.7974999999999997                 44.9375                 44.9375
    53   1      1.7974999999999997      46.734999999999999      46.734999999999999
    54   1      3.5949999999999993                 44.9375      46.734999999999999
    55   1      3.5949999999999993      46.734999999999999                 44.9375
    56   1      1.7974999999999997                 44.9375      48.532500000000006
    57   1      1.7974999999999997      46.734999999999999      50.330000000000005
    58   1      3.5949999999999993                 44.9375      50.330000000000005
    59   1      3.5949999999999993      46.734999999999999      48.532500000000006
    60   1      1.7974999999999997                 44.9375      52.127500000000012
    61   1      3.5949999999999993                 44.9375      53.925000000000011
    62   1      3.5949999999999993      46.734999999999999      52.127500000000012
    63   1      3.5949999999999993      46.734999999999999      55.722500000000011
    64   1      3.5949999999999993      48.532500000000006      35.950000000000003
    65   1      3.5949999999999993      48.532500000000006      39.545000000000002
    66   1      3.5949999999999993      50.330000000000005      37.747500000000009
    67   1      1.7974999999999997      48.532500000000006      41.342500000000008
    68   1      1.7974999999999997      50.330000000000005      43.140000000000008
    69   1      3.5949999999999993      48.532500000000006      43.140000000000008
    70   1      3.5949999999999993      50.330000000000005      41.342500000000008
    71   1      1.7974999999999997      48.532500000000006                 44.9375
    72   1      1.7974999999999997      50.330000000000005      46.734999999999999
    73   1      3.5949999999999993      48.532500000000006      46.734999999999999
    74   1      3.5949999999999993      50.330000000000005                 44.9375
    75   1      1.7974999999999997      48.532500000000006      48.532500000000006
    76   1      3.5949999999999993      48.532500000000006      50.330000000000005
    77   1      3.5949999999999993      50.330000000000005      48.532500000000006
    78   1      3.5949999999999993      48.532500000000006      53.925000000000011
    79   1      3.5949999999999993      50.330000000000005      52.127500000000012
    80   1      3.5949999999999993      52.127500000000012      39.545000000000002
    81   1      3.5949999999999993      52.127500000000012      43.140000000000008
    82   1      3.5949999999999993      53.925000000000011      41.342500000000008
    83   1      1.7974999999999997      52.127500000000012                 44.9375
    84   1      3.5949999999999993      52.127500000000012      46.734999999999999
    85   1      3.5949999999999993      53.925000000000011                 44.9375
    86   1      3.5949999999999993      52.127500000000012      50.330000000000005
    87   1      3.5949999999999993      53.925000000000011      48.532500000000006
    88   1      3.5949999999999993      55.722500000000011      43.140000000000008
    89   1      3.5949999999999993      55.722500000000011      46.734999999999999
    90   1      7.1899999999999986      25.165000000000003                 44.9375
    91   1      7.1899999999999986      26.962500000000006      39.545000000000002
    92   1      7.1899999999999986      28.760000000000002      37.747500000000009
    93   1      7.1899999999999986      26.962500000000006      43.140000000000008
    94   1      7.1899999999999986      28.760000000000002      41.342500000000008
    95   1      7.1899999999999986      26.962500000000006      46.734999999999999
    96   1      7.1899999999999986      28.760000000000002                 44.9375
    97   1      7.1899999999999986      26.962500000000006      50.330000000000005
    98   1      7.1899999999999986      28.760000000000002      48.532500000000006
    99   1      7.1899999999999986      28.760000000000002      52.127500000000012
   100   1      7.1899999999999986      30.557500000000005      32.355000000000011
   101   1      7.1899999999999986      32.355000000000011      30.557500000000005
   102   1      7.1899999999999986      30.557500000000005      35.950000000000003
   103   1      7.1899999999999986      32.355000000000011      34.152500000000003
   104   1      5.3924999999999983      32.355000000000011      39.545000000000002
   105   1      7.1899999999999986      30.557500000000005      39.545000000000002
   106   1      7.1899999999999986      32.355000000000011      37.747500000000009
   107   1      5.3924999999999983      30.557500000000005      41.342500000000008
   108   1      5.3924999999999983      32.355000000000011      43.140000000000008
   109   1      7.1899999999999986      30.557500000000005      43.140000000000008
   110   1      7.1899999999999986      32.355000000000011      41.342500000000008
   111   1      5.3924999999999983      30.557500000000005                 44.9375
   112   1      5.3924999999999983      32.355000000000011      46.734999999999999
   113   1      7.1899999999999986      30.557500000000005      46.734999999999999
   114   1      7.1899999999999986      32.355000000000011                 44.9375
   115   1      5.3924999999999983      30.557500000000005      48.532500000000006
   116   1      5.3924999999999983      32.355000000000011      50.330000000000005
   117   1      7.1899999999999986      30.557500000000005      50.330000000000005
   118   1      7.1899999999999986      32.355000000000011      48.532500000000006
   119   1      7.1899999999999986      30.557500000000005      53.925000000000011
   120   1      7.1899999999999986      32.355000000000011      52.127500000000012
   121   1      7.1899999999999986      30.557500000000005      57.520000000000003
   122   1      7.1899999999999986      32.355000000000011      55.722500000000011
   123   1      7.1899999999999986      32.355000000000011      59.317500000000003
   124   1      7.1899999999999986      34.152500000000003      32.355000000000011
   125   1      7.1899999999999986      35.950000000000003      30.557500000000005
   126   1      5.3924999999999983      34.152500000000003      34.152500000000003
   127   1      5.3924999999999983      35.950000000000003      35.950000000000003
   128   1      7.1899999999999986      34.152500000000003      35.950000000000003
   129   1      7.1899999999999986      35.950000000000003      34.152500000000003
   130   1      5.3924999999999983      34.152500000000003      37.747500000000009
   131   1      5.3924999999999983      35.950000000000003      39.545000000000002
   132   1      7.1899999999999986      34.152500000000003      39.545000000000002
   133   1      7.1899999999999986      35.950000000000003      37.747500000000009
   134   1      5.3924999999999983      34.152500000000003      41.342500000000008
   135   1      5.3924999999999983      35.950000000000003      43.140000000000008
   136   1      7.1899999999999986      34.152500000000003      43.140000000000008
   137   1      7.1899999999999986      35.950000000000003      41.342500000000008
   138   1      5.3924999999999983      34.152500000000003                 44.9375
   139   1      5.3924999999999983      35.950000000000003      46.734999999999999
   140   1      7.1899999999999986      34.152500000000003      46.734999999999999
   141   1      7.1899999999999986      35.950000000000003                 44.9375
   142   1      5.3924999999999983      34.152500000000003      48.532500000000006
   143   1      5.3924999999999983      35.950000000000003      50.330000000000005
   144   1      7.1899999999999986      34.152500000000003      50.330000000000005
   145   1      7.1899999999999986      35.950000000000003      48.532500000000006
   146   1      5.3924999999999983      34.152500000000003      52.127500000000012
   147   1      5.3924999999999983      35.950000000000003      53.925000000000011
   148   1      7.1899999999999986      34.152500000000003      53.925000000000011
   149   1      7.1899999999999986      35.950000000000003      52.127500000000012
   150   1      5.3924999999999983      34.152500000000003      55.722500000000011
   151   1      7.1899999999999986      34.152500000000003      57.520000000000003
   152   1      7.1899999999999986      35.950000000000003      55.722500000000011
   153   1      7.1899999999999986      35.950000000000003      59.317500000000003
   154   1      7.1899999999999986      37.747500000000009      28.760000000000002
   155   1      7.1899999999999986      39.545000000000002      26.962500000000006
   156   1      5.3924999999999983      39.545000000000002      32.355000000000011
   157   1      7.1899999999999986      37.747500000000009      32.355000000000011
   158   1      7.1899999999999986      39.545000000000002      30.557500000000005
   159   1      5.3924999999999983      37.747500000000009      34.152500000000003
   160   1      5.3924999999999983      39.545000000000002      35.950000000000003
   161   1      7.1899999999999986      37.747500000000009      35.950000000000003
   162   1      7.1899999999999986      39.545000000000002      34.152500000000003
   163   1      5.3924999999999983      37.747500000000009      37.747500000000009
   164   1      5.3924999999999983      39.545000000000002      39.545000000000002
   165   1      7.1899999999999986      37.747500000000009      39.545000000000002
   166   1      7.1899999999999986      39.545000000000002      37.747500000000009
   167   1      5.3924999999999983      37.747500000000009      41.342500000000008
   168   1      5.3924999999999983      39.545000000000002      43.140000000000008
   169   1      7.1899999999999986      37.747500000000009      43.140000000000008
   170   1      7.1899999999999986      39.545000000000002      41.342500000000008
   171   1      5.3924999999999983      37.747500000000009                 44.9375
   172   1      5.3924999999999983      39.545000000000002      46.734999999999999
   173   1      7.1899999999999986      37.747500000000009      46.734999999999999
   174   1      7.1899999999999986      39.545000000000002                 44.9375
   175   1      5.3924999999999983      37.747500000000009      48.532500000000006
   176   1      5.3924999999999983      39.545000000000002      50.330000000000005
   177   1      7.1899999999999986      37.747500000000009      50.330000000000005
   178   1      7.1899999999999986      39.545000000000002      48.532500000000006
   179   1      5.3924999999999983      37.747500000000009      52.127500000000012
   180   1      5.3924999999999983      39.545000000000002      53.925000000000011
   181   1      7.1899999999999986      37.747500000000009      53.925000000000011
   182   1      7.1899999999999986      39.545000000000002      52.127500000000012
   183   1      5.3924999999999983      37.747500000000009      55.722500000000011
   184   1      5.3924999999999983      39.545000000000002      57.520000000000003
   185   1      7.1899999999999986      37.747500000000009      57.520000000000003
   186   1      7.1899999999999986      39.545000000000002      55.722500000000011
   187   1      7.1899999999999986      37.747500000000009      61.115000000000009
   188   1      7.1899999999999986      39.545000000000002      59.317500000000003
   189   1      7.1899999999999986      39.545000000000002      62.912500000000009
   190   1      7.1899999999999986      41.342500000000008      28.760000000000002
   191   1      7.1899999999999986      43.140000000000008      26.962500000000006
   192   1      5.3924999999999983      41.342500000000008      30.557500000000005
   193   1      5.3924999999999983      43.140000000000008      32.355000000000011
   194   1      7.1899999999999986      41.342500000000008      32.355000000000011
   195   1      7.1899999999999986      43.140000000000008      30.557500000000005
   196   1      5.3924999999999983      41.342500000000008      34.152500000000003
   197   1      5.3924999999999983      43.140000000000008      35.950000000000003
   198   1      7.1899999999999986      41.342500000000008      35.950000000000003
   199   1      7.1899999999999986      43.140000000000008      34.152500000000003
   200   1      5.3924999999999983      41.342500000000008      37.747500000000009
   201   1      5.3924999999999983      43.140000000000008      39.545000000000002
   202   1      7.1899999999999986      41.342500000000008      39.545000000000002
   203   1      7.1899999999999986      43.140000000000008      37.747500000000009
   204   1      5.3924999999999983      41.342500000000008      41.342500000000008
   205   1      5.3924999999999983      43.140000000000008      43.140000000000008
   206   1      7.1899999999999986      41.342500000000008      43.140000000000008
   207   1      7.1899999999999986      43.140000000000008      41.342500000000008
   208   1      5.3924999999999983      41.342500000000008                 44.9375
   209   1      5.3924999999999983      43.140000000000008      46.734999999999999
   210   1      7.1899999999999986      41.342500000000008      46.734999999999999
   211   1      7.1899999999999986      43.140000000000008                 44.9375
   212   1      5.3924999999999983      41.342500000000008      48.532500000000006
   213   1      5.3924999999999983      43.140000000000008      50.330000000000005
   214   1      7.1899999999999986      41.342500000000008      50.330000000000005
   215   1      7.1899999999999986      43.140000000000008      48.532500000000006
   216   1      5.3924999999999983      41.342500000000008      52.127500000000012
   217   1      5.3924999999999983      43.140000000000008      53.925000000000011
   218   1      7.1899999999999986      41.342500000000008      53.925000000000011
   219   1      7.1899999999999986      43.140000000000008      52.127500000000012
   220   1      5.3924999999999983      41.342500000000008      55.722500000000011
   221   1      5.3924999999999983      43.140000000000008      57.520000000000003
   222   1      7.1899999999999986      41.342500000000008      57.520000000000003
   223   1      7.1899999999999986      43.140000000000008      55.722500000000011
   224   1      5.3924999999999983      41.342500000000008      59.317500000000003
   225   1      7.1899999999999986      41.342500000000008      61.115000000000009
   226   1      7.1899999999999986      43.140000000000008      59.317500000000003
   227   1      7.1899999999999986      43.140000000000008      62.912500000000009
   228   1      7.1899999999999986                 44.9375      25.165000000000003
   229   1      7.1899999999999986                 44.9375      28.760000000000002
   230   1      7.1899999999999986      46.734999999999999      26.962500000000006
   231   1      5.3924999999999983                 44.9375      30.557500000000005
   232   1      5.3924999999999983      46.734999999999999      32.355000000000011
   233   1      7.1899999999999986                 44.9375      32.355000000000011
   234   1      7.1899999999999986      46.734999999999999      30.557500000000005
   235   1      5.3924999999999983                 44.9375      34.152500000000003
   236   1      5.3924999999999983      46.734999999999999      35.950000000000003
   237   1      7.1899999999999986                 44.9375      35.950000000000003
   238   1      7.1899999999999986      46.734999999999999      34.152500000000003
   239   1      5.3924999999999983                 44.9375      37.747500000000009
   240   1      5.3924999999999983      46.734999999999999      39.545000000000002
   241   1      7.1899999999999986                 44.9375      39.545000000000002
   242   1      7.1899999999999986      46.734999999999999      37.747500000000009
   243   1      5.3924999999999983                 44.9375      41.342500000000008
   244   1      5.3924999999999983      46.734999999999999      43.140000000000008
   245   1      7.1899999999999986                 44.9375      43.140000000000008
   246   1      7.1899999999999986      46.734999999999999      41.342500000000008
   247   1      5.3924999999999983                 44.9375                 44.9375
   248   1      5.3924999999999983      46.734999999999999      46.734999999999999
   249   1      7.1899999999999986                 44.9375      46.734999999999999
   250   1      7.1899999999999986      46.734999999999999                 44.9375
   251   1      5.3924999999999983                 44.9375      48.532500000000006
   252   1      5.3924999999999983      46.734999999999999      50.330000000000005
   253   1      7.1899999999999986                 44.9375      50.330000000000005
   254   1      7.1899999999999986      46.734999999999999      48.532500000000006
   255   1      5.3924999999999983                 44.9375      52.127500000000012
   256   1      5.3924999999999983      46.734999999999999      53.925000000000011
   257   1      7.1899999999999986                 44.9375      53.925000000000011
   258   1      7.1899999999999986      46.734999999999999      52.127500000000012
   259   1      5.3924999999999983                 44.9375      55.722500000000011
   260   1      5.3924999999999983      46.734999999999999      57.520000000000003
   261   1      7.1899999999999986                 44.9375      57.520000000000003
   262   1      7.1899999999999986      46.734999999999999      55.722500000000011
   263   1      5.3924999999999983                 44.9375      59.317500000000003
   264   1      7.1899999999999986                 44.9375      61.115000000000009
   265   1      7.1899999999999986      46.734999999999999      59.317500000000003
   266   1      7.1899999999999986                 44.9375      64.710000000000022
   267   1      7.1899999999999986      46.734999999999999      62.912500000000009
   268   1      7.1899999999999986      48.532500000000006      28.760000000000002
   269   1      7.1899999999999986      50.330000000000005      26.962500000000006
   270   1      5.3924999999999983      48.532500000000006      30.557500000000005
   271   1      5.3924999999999983      50.330000000000005      32.355000000000011
   272   1      7.1899999999999986      48.532500000000006      32.355000000000011
   273   1      7.1899999999999986      50.330000000000005      30.557500000000005
   274   1      5.3924999999999983      48.532500000000006      34.152500000000003
   275   1      5.3924999999999983      50.330000000000005      35.950000000000003
   276   1      7.1899999999999986      48.532500000000006      35.950000000000003
   277   1      7.1899999999999986      50.330000000000005      34.152500000000003
   278   1      5.3924999999999983      48.532500000000006      37.747500000000009
   279   1      5.3924999999999983      50.330000000000005      39.545000000000002
   280   1      7.1899999999999986      48.532500000000006      39.545000000000002
   281   1      7.1899999999999986      50.330000000000005      37.747500000000009
   282   1      5.3924999999999983      48.532500000000006      41.342500000000008
   283   1      5.3924999999999983      50.330000000000005      43.140000000000008
   284   1      7.1899999999999986      48.532500000000006      43.140000000000008
   285   1      7.1899999999999986      50.330000000000005      41.342500000000008
   286   1      5.3924999999999983      48.532500000000006                 44.9375
   287   1      5.3924999999999983      50.330000000000005      46.734999999999999
   288   1      7.1899999999999986      48.532500000000006      46.734999999999999
   289   1      7.1899999999999986      50.330000000000005                 44.9375
   290   1      5.3924999999999983      48.532500000000006      48.532500000000006
   291   1      5.3924999999999983      50.330000000000005      50.330000000000005
   292   1      7.1899999999999986      48.532500000000006      50.330000000000005
   293   1      7.1899999999999986      50.330000000000005      48.532500000000006
   294   1      5.3924999999999983      48.532500000000006      52.127500000000012
   295   1      5.3924999999999983      50.330000000000005      53.925000000000011
   296   1      7.1899999999999986      48.532500000000006      53.925000000000011
   297   1      7.1899999999999986      50.330000000000005      52.127500000000012
   298   1      5.3924999999999983      48.532500000000006      55.722500000000011
   299   1      5.3924999999999983      50.330000000000005      57.520000000000003
   300   1      7.1899999999999986      48.532500000000006      57.520000000000003
   301   1      7.1899999999999986      50.330000000000005      55.722500000000011
   302   1      5.3924999999999983      48.532500000000006      59.317500000000003
   303   1      7.1899999999999986      48.532500000000006      61.115000000000009
   304   1      7.1899999999999986      50.330000000000005      59.317500000000003
   305   1      7.1899999999999986      50.330000000000005      62.912500000000009
   306   1      7.1899999999999986      52.127500000000012      28.760000000000002
   307   1      7.1899999999999986      52.127500000000012      32.355000000000011
   308   1      7.1899999999999986      53.925000000000011      30.557500000000005
   309   1      5.3924999999999983      52.127500000000012      34.152500000000003
   310   1      5.3924999999999983      53.925000000000011      35.950000000000003
   311   1      7.1899999999999986      52.127500000000012      35.950000000000003
   312   1      7.1899999999999986      53.925000000000011      34.152500000000003
   313   1      5.3924999999999983      52.127500000000012      37.747500000000009
   314   1      5.3924999999999983      53.925000000000011      39.545000000000002
   315   1      7.1899999999999986      52.127500000000012      39.545000000000002
   316   1      7.1899999999999986      53.925000000000011      37.747500000000009
   317   1      5.3924999999999983      52.127500000000012      41.342500000000008
   318   1      5.3924999999999983      53.925000000000011      43.140000000000008
   319   1      7.1899999999999986      52.127500000000012      43.140000000000008
   320   1      7.1899999999999986      53.925000000000011      41.342500000000008
   321   1      5.3924999999999983      52.127500000000012                 44.9375
   322   1      5.3924999999999983      53.925000000000011      46.734999999999999
   323   1      7.1899999999999986      52.127500000000012      46.734999999999999
   324   1      7.1899999999999986      53.925000000000011                 44.9375
   325   1      5.3924999999999983      52.127500000000012      48.532500000000006
   326   1      5.3924999999999983      53.925000000000011      50.330000000000005
   327   1      7.1899999999999986      52.127500000000012      50.330000000000005
   328   1      7.1899999999999986      53.925000000000011      48.532500000000006
   329   1      5.3924999999999983      52.127500000000012      52.127500000000012
   330   1      5.3924999999999983      53.925000000000011      53.925000000000011
   331   1      7.1899999999999986      52.127500000000012      53.925000000000011
   332   1      7.1899999999999986      53.925000000000011      52.127500000000012
   333   1      5.3924999999999983      52.127500000000012      55.722500000000011
   334   1      7.1899999999999986      52.127500000000012      57.520000000000003
   335   1      7.1899999999999986      53.925000000000011      55.722500000000011
   336   1      7.1899999999999986      52.127500000000012      61.115000000000009
   337   1      7.1899999999999986      53.925000000000011      59.317500000000003
   338   1      7.1899999999999986      55.722500000000011      32.355000000000011
   339   1      7.1899999999999986      57.520000000000003      30.557500000000005
   340   1      5.3924999999999983      55.722500000000011      34.152500000000003
   341   1      7.1899999999999986      55.722500000000011      35.950000000000003
   342   1      7.1899999999999986      57.520000000000003      34.152500000000003
   343   1      5.3924999999999983      55.722500000000011      37.747500000000009
   344   1      5.3924999999999983      57.520000000000003      39.545000000000002
   345   1      7.1899999999999986      55.722500000000011      39.545000000000002
   346   1      7.1899999999999986      57.520000000000003      37.747500000000009
   347   1      5.3924999999999983      55.722500000000011      41.342500000000008
   348   1      5.3924999999999983      57.520000000000003      43.140000000000008
   349   1      7.1899999999999986      55.722500000000011      43.140000000000008
   350   1      7.1899999999999986      57.520000000000003      41.342500000000008
   351   1      5.3924999999999983      55.722500000000011                 44.9375
   352   1      5.3924999999999983      57.520000000000003      46.734999999999999
   353   1      7.1899999999999986      55.722500000000011      46.734999999999999
   354   1      7.1899999999999986      57.520000000000003                 44.9375
   355   1      5.3924999999999983      55.722500000000011      48.532500000000006
   356   1      5.3924999999999983      57.520000000000003      50.330000000000005
   357   1      7.1899999999999986      55.722500000000011      50.330000000000005
   358   1      7.1899999999999986      57.520000000000003      48.532500000000006