model_files/PtAu/PtAu_30000/PtAu_100/PtAu_100_fcc_29659_temp.data (written by ASE) 

29659 	 atoms 
2  atom types
0.0                      76  xlo xhi
0.0                      76  ylo yhi
0.0                      76  zlo zhi


Atoms 

     1   1  1.4210854715202004e-14  1.4210854715202004e-14      2.0215000000000103
     2   1  1.4210854715202004e-14  1.4210854715202004e-14      6.0645000000000095
     3   1  1.4210854715202004e-14  1.4210854715202004e-14      10.107500000000012
     4   1  1.4210854715202004e-14  1.4210854715202004e-14      14.150500000000012
     5   1  1.4210854715202004e-14  1.4210854715202004e-14      18.193500000000011
     6   1  1.4210854715202004e-14  1.4210854715202004e-14      22.236500000000014
     7   1  1.4210854715202004e-14  1.4210854715202004e-14      26.279500000000013
     8   1  1.4210854715202004e-14  1.4210854715202004e-14      30.322500000000009
     9   1  1.4210854715202004e-14  1.4210854715202004e-14      34.365500000000004
    10   1  1.4210854715202004e-14  1.4210854715202004e-14      38.408500000000011
    11   1  1.4210854715202004e-14  1.4210854715202004e-14       42.45150000000001
    12   1  1.4210854715202004e-14  1.4210854715202004e-14      46.494500000000016
    13   1  1.4210854715202004e-14  1.4210854715202004e-14      50.537500000000009
    14   1  1.4210854715202004e-14  1.4210854715202004e-14      54.580500000000008
    15   1  1.4210854715202004e-14  1.4210854715202004e-14      58.623500000000007
    16   1  1.4210854715202004e-14  1.4210854715202004e-14      62.666500000000006
    17   1  1.4210854715202004e-14  1.4210854715202004e-14      66.709500000000006
    18   1  1.4210854715202004e-14  1.4210854715202004e-14      70.752500000000012
    19   1  1.4210854715202004e-14  1.4210854715202004e-14      74.795500000000018
    20   1  1.4210854715202004e-14      2.0215000000000103  1.4210854715202004e-14
    21   1  1.4210854715202004e-14      2.0215000000000103      4.0430000000000135
    22   1  1.4210854715202004e-14      4.0430000000000135      2.0215000000000103
    23   1  1.4210854715202004e-14      2.0215000000000103      8.0860000000000127
    24   1  1.4210854715202004e-14      4.0430000000000135      6.0645000000000095
    25   1  1.4210854715202004e-14      2.0215000000000103       12.12900000000001
    26   1  1.4210854715202004e-14      4.0430000000000135      10.107500000000012
    27   1  1.4210854715202004e-14      2.0215000000000103      16.172000000000011
    28   1  1.4210854715202004e-14      4.0430000000000135      14.150500000000012
    29   1  1.4210854715202004e-14      2.0215000000000103      20.215000000000011
    30   1  1.4210854715202004e-14      4.0430000000000135      18.193500000000011
    31   1  1.4210854715202004e-14      2.0215000000000103      24.258000000000013
    32   1  1.4210854715202004e-14      4.0430000000000135      22.236500000000014
    33   1  1.4210854715202004e-14      2.0215000000000103      28.301000000000009
    34   1  1.4210854715202004e-14      4.0430000000000135      26.279500000000013
    35   1  1.4210854715202004e-14      2.0215000000000103      32.344000000000015
    36   1  1.4210854715202004e-14      4.0430000000000135      30.322500000000009
    37   1  1.4210854715202004e-14      2.0215000000000103      36.387000000000008
    38   1  1.4210854715202004e-14      4.0430000000000135      34.365500000000004
    39   1  1.4210854715202004e-14      2.0215000000000103      40.430000000000014
    40   1  1.4210854715202004e-14      4.0430000000000135      38.408500000000011
    41   1  1.4210854715202004e-14      2.0215000000000103      44.473000000000013
    42   1  1.4210854715202004e-14      4.0430000000000135       42.45150000000001
    43   1  1.4210854715202004e-14      2.0215000000000103       48.51600000000002
    44   1  1.4210854715202004e-14      4.0430000000000135      46.494500000000016
    45   1  1.4210854715202004e-14      2.0215000000000103      52.559000000000012
    46   1  1.4210854715202004e-14      4.0430000000000135      50.537500000000009
    47   1  1.4210854715202004e-14      2.0215000000000103      56.602000000000011
    48   1  1.4210854715202004e-14      4.0430000000000135      54.580500000000008
    49   1  1.4210854715202004e-14      2.0215000000000103       60.64500000000001
    50   1  1.4210854715202004e-14      4.0430000000000135      58.623500000000007
    51   1  1.4210854715202004e-14      2.0215000000000103      64.688000000000002
    52   1  1.4210854715202004e-14      4.0430000000000135      62.666500000000006
    53   1  1.4210854715202004e-14      2.0215000000000103      68.731000000000009
    54   1  1.4210854715202004e-14      4.0430000000000135      66.709500000000006
    55   1  1.4210854715202004e-14      2.0215000000000103      72.774000000000015
    56   1  1.4210854715202004e-14      4.0430000000000135      70.752500000000012
    57   1  1.4210854715202004e-14      2.0215000000000103      0.8170000000000196
    58   1  1.4210854715202004e-14      4.0430000000000135      74.795500000000018
    59   1  1.4210854715202004e-14      6.0645000000000095  1.4210854715202004e-14
    60   1  1.4210854715202004e-14      6.0645000000000095      4.0430000000000135
    61   1  1.4210854715202004e-14      8.0860000000000127      2.0215000000000103
    62   1  1.4210854715202004e-14      6.0645000000000095      8.0860000000000127
    63   1  1.4210854715202004e-14      8.0860000000000127      6.0645000000000095
    64   1  1.4210854715202004e-14      6.0645000000000095       12.12900000000001
    65   1  1.4210854715202004e-14      8.0860000000000127      10.107500000000012
    66   1  1.4210854715202004e-14      6.0645000000000095      16.172000000000011
    67   1  1.4210854715202004e-14      8.0860000000000127      14.150500000000012
    68   1  1.4210854715202004e-14      6.0645000000000095      20.215000000000011
    69   1  1.4210854715202004e-14      8.0860000000000127      18.193500000000011
    70   1  1.4210854715202004e-14      6.0645000000000095      24.258000000000013
    71   1  1.4210854715202004e-14      8.0860000000000127      22.236500000000014
    72   1  1.4210854715202004e-14      6.0645000000000095      28.301000000000009
    73   1  1.4210854715202004e-14      8.0860000000000127      26.279500000000013
    74   1  1.4210854715202004e-14      6.0645000000000095      32.344000000000015
    75   1  1.4210854715202004e-14      8.0860000000000127      30.322500000000009
    76   1  1.4210854715202004e-14      6.0645000000000095      36.387000000000008
    77   1  1.4210854715202004e-14      8.0860000000000127      34.365500000000004
    78   1  1.4210854715202004e-14      6.0645000000000095      40.430000000000014
    79   1  1.4210854715202004e-14      8.0860000000000127      38.408500000000011
    80   1  1.4210854715202004e-14      6.0645000000000095      44.473000000000013
    81   1  1.4210854715202004e-14      8.0860000000000127       42.45150000000001
    82   1  1.4210854715202004e-14      6.0645000000000095       48.51600000000002
    83   1  1.4210854715202004e-14      8.0860000000000127      46.494500000000016
    84   1  1.4210854715202004e-14      6.0645000000000095      52.559000000000012
    85   1  1.4210854715202004e-14      8.0860000000000127      50.537500000000009
    86   1  1.4210854715202004e-14      6.0645000000000095      56.602000000000011
    87   1  1.4210854715202004e-14      8.0860000000000127      54.580500000000008
    88   1  1.4210854715202004e-14      6.0645000000000095       60.64500000000001
    89   1  1.4210854715202004e-14      8.0860000000000127      58.623500000000007
    90   1  1.4210854715202004e-14      6.0645000000000095      64.688000000000002
    91   1  1.4210854715202004e-14      8.0860000000000127      62.666500000000006
    92   1  1.4210854715202004e-14      6.0645000000000095      68.731000000000009
    93   1  1.4210854715202004e-14      8.0860000000000127      66.709500000000006
    94   1  1.4210854715202004e-14      6.0645000000000095      72.774000000000015
    95   1  1.4210854715202004e-14      8.0860000000000127      70.752500000000012
    96   1  1.4210854715202004e-14      6.0645000000000095      0.8170000000000196
    97   1  1.4210854715202004e-14      8.0860000000000127      74.795500000000018
    98   1  1.4210854715202004e-14      10.107500000000012  1.4210854715202004e-14
    99   1  1.4210854715202004e-14      10.107500000000012      4.0430000000000135
   100   1  1.4210854715202004e-14       12.12900000000001      2.0215000000000103
   101   1  1.4210854715202004e-14      10.107500000000012      8.0860000000000127
   102   1  1.4210854715202004e-14       12.12900000000001      6.0645000000000095
   103   1  1.4210854715202004e-14      10.107500000000012       12.12900000000001
   104   1  1.4210854715202004e-14       12.12900000000001      10.107500000000012
   105   1  1.4210854715202004e-14      10.107500000000012      16.172000000000011
   106   1  1.4210854715202004e-14       12.12900000000001      14.150500000000012
   107   1  1.4210854715202004e-14      10.107500000000012      20.215000000000011
   108   1  1.4210854715202004e-14       12.12900000000001      18.193500000000011
   109   1  1.4210854715202004e-14      10.107500000000012      24.258000000000013
   110   1  1.4210854715202004e-14       12.12900000000001      22.236500000000014
   111   1  1.4210854715202004e-14      10.107500000000012      28.301000000000009
   112   1  1.4210854715202004e-14       12.12900000000001      26.279500000000013
   113   1  1.4210854715202004e-14      10.107500000000012      32.344000000000015
   114   1  1.4210854715202004e-14       12.12900000000001      30.322500000000009
   115   1  1.4210854715202004e-14      10.107500000000012      36.387000000000008
   116   1  1.4210854715202004e-14       12.12900000000001      34.365500000000004
   117   1  1.4210854715202004e-14      10.107500000000012      40.430000000000014
   118   1  1.4210854715202004e-14       12.12900000000001      38.408500000000011
   119   1  1.4210854715202004e-14      10.107500000000012      44.473000000000013
   120   1  1.4210854715202004e-14       12.12900000000001       42.45150000000001
   121   1  1.4210854715202004e-14      10.107500000000012       48.51600000000002
   122   1  1.4210854715202004e-14       12.12900000000001      46.494500000000016
   123   1  1.4210854715202004e-14      10.107500000000012      52.559000000000012
   124   1  1.4210854715202004e-14       12.12900000000001      50.537500000000009
   125   1  1.4210854715202004e-14      10.107500000000012      56.602000000000011
   126   1  1.4210854715202004e-14       12.12900000000001      54.580500000000008
   127   1  1.4210854715202004e-14      10.107500000000012       60.64500000000001
   128   1  1.4210854715202004e-14       12.12900000000001      58.623500000000007
   129   1  1.4210854715202004e-14      10.107500000000012      64.688000000000002
   130   1  1.4210854715202004e-14       12.12900000000001      62.666500000000006
   131   1  1.4210854715202004e-14      10.107500000000012      68.731000000000009
   132   1  1.4210854715202004e-14       12.12900000000001      66.709500000000006
   133   1  1.4210854715202004e-14      10.107500000000012      72.774000000000015
   134   1  1.4210854715202004e-14       12.12900000000001      70.752500000000012
   135   1  1.4210854715202004e-14      10.107500000000012      0.8170000000000196
   136   1  1.4210854715202004e-14       12.12900000000001      74.795500000000018
   137   1  1.4210854715202004e-14      14.150500000000012  1.4210854715202004e-14
   138   1  1.4210854715202004e-14      14.150500000000012      4.0430000000000135
   139   1  1.4210854715202004e-14      16.172000000000011      2.0215000000000103
   140   1  1.4210854715202004e-14      14.150500000000012      8.0860000000000127
   141   1  1.4210854715202004e-14      16.172000000000011      6.0645000000000095
   142   1  1.4210854715202004e-14      14.150500000000012       12.12900000000001
   143   1  1.4210854715202004e-14      16.172000000000011      10.107500000000012
   144   1  1.4210854715202004e-14      14.150500000000012      16.172000000000011
   145   1  1.4210854715202004e-14      16.172000000000011      14.150500000000012
   146   1  1.4210854715202004e-14      14.150500000000012      20.215000000000011
   147   1  1.4210854715202004e-14      16.172000000000011      18.193500000000011
   148   1  1.4210854715202004e-14      14.150500000000012      24.258000000000013
   149   1  1.4210854715202004e-14      16.172000000000011      22.236500000000014
   150   1  1.4210854715202004e-14      14.150500000000012      28.301000000000009
   151   1  1.4210854715202004e-14      16.172000000000011      26.279500000000013
   152   1  1.4210854715202004e-14      14.150500000000012      32.344000000000015
   153   1  1.4210854715202004e-14      16.172000000000011      30.322500000000009
   154   1  1.4210854715202004e-14      14.150500000000012      36.387000000000008
   155   1  1.4210854715202004e-14      16.172000000000011      34.365500000000004
   156   1  1.4210854715202004e-14      14.150500000000012      40.430000000000014
   157   1  1.4210854715202004e-14      16.172000000000011      38.408500000000011
   158   1  1.4210854715202004e-14      14.150500000000012      44.473000000000013
   159   1  1.4210854715202004e-14      16.172000000000011       42.45150000000001
   160   1  1.4210854715202004e-14      14.150500000000012       48.51600000000002
   161   1  1.4210854715202004e-14      16.172000000000011      46.494500000000016
   162   1  1.4210854715202004e-14      14.150500000000012      52.559000000000012
   163   1  1.4210854715202004e-14      16.172000000000011      50.537500000000009
   164   1  1.4210854715202004e-14      14.150500000000012      56.602000000000011
   165   1  1.4210854715202004e-14      16.172000000000011      54.580500000000008
   166   1  1.4210854715202004e-14      14.150500000000012       60.64500000000001
   167   1  1.4210854715202004e-14      16.172000000000011      58.623500000000007
   168   1  1.4210854715202004e-14      14.150500000000012      64.688000000000002
   169   1  1.4210854715202004e-14      16.172000000000011      62.666500000000006
   170   1  1.4210854715202004e-14      14.150500000000012      68.731000000000009
   171   1  1.4210854715202004e-14      16.172000000000011      66.709500000000006
   172   1  1.4210854715202004e-14      14.150500000000012      72.774000000000015
   173   1  1.4210854715202004e-14      16.172000000000011      70.752500000000012
   174   1  1.4210854715202004e-14      14.150500000000012      0.8170000000000196
   175   1  1.4210854715202004e-14      16.172000000000011      74.795500000000018
   176   1  1.4210854715202004e-14      18.193500000000011  1.4210854715202004e-14
   177   1  1.4210854715202004e-14      18.193500000000011      4.0430000000000135
   178   1  1.4210854715202004e-14      20.215000000000011      2.0215000000000103
   179   1  1.4210854715202004e-14      18.193500000000011      8.0860000000000127
   180   1  1.4210854715202004e-14      20.215000000000011      6.0645000000000095
   181   1  1.4210854715202004e-14      18.193500000000011       12.12900000000001
   182   1  1.4210854715202004e-14      20.215000000000011      10.107500000000012
   183   1  1.4210854715202004e-14      18.193500000000011      16.172000000000011
   184   1  1.4210854715202004e-14      20.215000000000011      14.150500000000012
   185   1  1.4210854715202004e-14      18.193500000000011      20.215000000000011
   186   1  1.4210854715202004e-14      20.215000000000011      18.193500000000011
   187   1  1.4210854715202004e-14      18.193500000000011      24.258000000000013
   188   1  1.4210854715202004e-14      20.215000000000011      22.236500000000014
   189   1  1.4210854715202004e-14      18.193500000000011      28.301000000000009
   190   1  1.4210854715202004e-14      20.215000000000011      26.279500000000013
   191   1  1.4210854715202004e-14      18.193500000000011      32.344000000000015
   192   1  1.4210854715202004e-14      20.215000000000011      30.322500000000009
   193   1  1.4210854715202004e-14      18.193500000000011      36.387000000000008
   194   1  1.4210854715202004e-14      20.215000000000011      34.365500000000004
   195   1  1.4210854715202004e-14      18.193500000000011      40.430000000000014
   196   1  1.4210854715202004e-14      20.215000000000011      38.408500000000011
   197   1  1.4210854715202004e-14      18.193500000000011      44.473000000000013
   198   1  1.4210854715202004e-14      20.215000000000011       42.45150000000001
   199   1  1.4210854715202004e-14      18.193500000000011       48.51600000000002
   200   1  1.4210854715202004e-14      20.215000000000011      46.494500000000016
   201   1  1.4210854715202004e-14      18.193500000000011      52.559000000000012
   202   1  1.4210854715202004e-14      20.215000000000011      50.537500000000009
   203   1  1.4210854715202004e-14      18.193500000000011      56.602000000000011
   204   1  1.4210854715202004e-14      20.215000000000011      54.580500000000008
   205   1  1.4210854715202004e-14      18.193500000000011       60.64500000000001
   206   1  1.4210854715202004e-14      20.215000000000011      58.623500000000007
   207   1  1.4210854715202004e-14      18.193500000000011      64.688000000000002
   208   1  1.4210854715202004e-14      20.215000000000011      62.666500000000006
   209   1  1.4210854715202004e-14      18.193500000000011      68.731000000000009
   210   1  1.4210854715202004e-14      20.215000000000011      66.709500000000006
   211   1  1.4210854715202004e-14      18.193500000000011      72.774000000000015
   212   1  1.4210854715202004e-14      20.215000000000011      70.752500000000012
   213   1  1.4210854715202004e-14      18.193500000000011      0.8170000000000196
   214   1  1.4210854715202004e-14      20.215000000000011      74.795500000000018
   215   1  1.4210854715202004e-14      22.236500000000014  1.4210854715202004e-14
   216   1  1.4210854715202004e-14      22.236500000000014      4.0430000000000135
   217   1  1.4210854715202004e-14      24.258000000000013      2.0215000000000103
   218   1  1.4210854715202004e-14      22.236500000000014      8.0860000000000127
   219   1  1.4210854715202004e-14      24.258000000000013      6.0645000000000095
   220   1  1.4210854715202004e-14      22.236500000000014       12.12900000000001
   221   1  1.4210854715202004e-14      24.258000000000013      10.107500000000012
   222   1  1.4210854715202004e-14      22.236500000000014      16.172000000000011
   223   1  1.4210854715202004e-14      24.258000000000013      14.150500000000012
   224   1  1.4210854715202004e-14      22.236500000000014      20.215000000000011
   225   1  1.4210854715202004e-14      24.258000000000013      18.193500000000011
   226   1  1.4210854715202004e-14      22.236500000000014      24.258000000000013
   227   1  1.4210854715202004e-14      24.258000000000013      22.236500000000014
   228   1  1.4210854715202004e-14      22.236500000000014      28.301000000000009
   229   1  1.4210854715202004e-14      24.258000000000013      26.279500000000013
   230   1  1.4210854715202004e-14      22.236500000000014      32.344000000000015
   231   1  1.4210854715202004e-14      24.258000000000013      30.322500000000009
   232   1  1.4210854715202004e-14      22.236500000000014      36.387000000000008
   233   1  1.4210854715202004e-14      24.258000000000013      34.365500000000004
   234   1  1.4210854715202004e-14      22.236500000000014      40.430000000000014
   235   1  1.4210854715202004e-14      24.258000000000013      38.408500000000011
   236   1  1.4210854715202004e-14      22.236500000000014      44.473000000000013
   237   1  1.4210854715202004e-14      24.258000000000013       42.45150000000001
   238   1  1.4210854715202004e-14      22.236500000000014       48.51600000000002
   239   1  1.4210854715202004e-14      24.258000000000013      46.494500000000016
   240   1  1.4210854715202004e-14      22.236500000000014      52.559000000000012
   241   1  1.4210854715202004e-14      24.258000000000013      50.537500000000009
   242   1  1.4210854715202004e-14      22.236500000000014      56.602000000000011
   243   1  1.4210854715202004e-14      24.258000000000013      54.580500000000008
   244   1  1.4210854715202004e-14      22.236500000000014       60.64500000000001
   245   1  1.4210854715202004e-14      24.258000000000013      58.623500000000007
   246   1  1.4210854715202004e-14      22.236500000000014      64.688000000000002
   247   1  1.4210854715202004e-14      24.258000000000013      62.666500000000006
   248   1  1.4210854715202004e-14      22.236500000000014      68.731000000000009
   249   1  1.4210854715202004e-14      24.258000000000013      66.709500000000006
   250   1  1.4210854715202004e-14      22.236500000000014      72.774000000000015
   251   1  1.4210854715202004e-14      24.258000000000013      70.752500000000012
   252   1  1.4210854715202004e-14      22.236500000000014      0.8170000000000196
   253   1  1.4210854715202004e-14      24.258000000000013      74.795500000000018
   254   1  1.4210854715202004e-14      26.279500000000013  1.4210854715202004e-14
   255   1  1.4210854715202004e-14      26.279500000000013      4.0430000000000135
   256   1  1.4210854715202004e-14      28.301000000000009      2.0215000000000103
   257   1  1.4210854715202004e-14      26.279500000000013      8.0860000000000127
   258   1  1.4210854715202004e-14      28.301000000000009      6.0645000000000095
   259   1  1.4210854715202004e-14      26.279500000000013       12.12900000000001
   260   1  1.4210854715202004e-14      28.301000000000009      10.107500000000012
   261   1  1.4210854715202004e-14      26.279500000000013      16.172000000000011
   262   1  1.4210854715202004e-14      28.301000000000009      14.150500000000012
   263   1  1.4210854715202004e-14      26.279500000000013      20.215000000000011
   264   1  1.4210854715202004e-14      28.301000000000009      18.193500000000011
   265   1  1.4210854715202004e-14      26.279500000000013      24.258000000000013
   266   1  1.4210854715202004e-14      28.301000000000009      22.236500000000014
   267   1  1.4210854715202004e-14      26.279500000000013      28.301000000000009
   268   1  1.4210854715202004e-14      28.301000000000009      26.279500000000013
   269   1  1.4210854715202004e-14      26.279500000000013      32.344000000000015
   270   1  1.4210854715202004e-14      28.301000000000009      30.322500000000009
   271   1  1.4210854715202004e-14      26.279500000000013      36.387000000000008
   272   1  1.4210854715202004e-14      28.301000000000009      34.365500000000004
   273   1  1.4210854715202004e-14      26.279500000000013      40.430000000000014
   274   1  1.4210854715202004e-14      28.301000000000009      38.408500000000011
   275   1  1.4210854715202004e-14      26.279500000000013      44.473000000000013
   276   1  1.4210854715202004e-14      28.301000000000009       42.45150000000001
   277   1  1.4210854715202004e-14      26.279500000000013       48.51600000000002
   278   1  1.4210854715202004e-14      28.301000000000009      46.494500000000016
   279   1  1.4210854715202004e-14      26.279500000000013      52.559000000000012
   280   1  1.4210854715202004e-14      28.301000000000009      50.537500000000009
   281   1  1.4210854715202004e-14      26.279500000000013      56.602000000000011
   282   1  1.4210854715202004e-14      28.301000000000009      54.580500000000008
   283   1  1.4210854715202004e-14      26.279500000000013       60.64500000000001
   284   1  1.4210854715202004e-14      28.301000000000009      58.623500000000007
   285   1  1.4210854715202004e-14      26.279500000000013      64.688000000000002
   286   1  1.4210854715202004e-14      28.301000000000009      62.666500000000006
   287   1  1.4210854715202004e-14      26.279500000000013      68.731000000000009
   288   1  1.4210854715202004e-14      28.301000000000009      66.709500000000006
   289   1  1.4210854715202004e-14      26.279500000000013      72.774000000000015
   290   1  1.4210854715202004e-14      28.301000000000009      70.752500000000012
   291   1  1.4210854715202004e-14      26.279500000000013      0.8170000000000196
   292   1  1.4210854715202004e-14      28.301000000000009      74.795500000000018
   293   1  1.4210854715202004e-14      30.322500000000009  1.4210854715202004e-14
   294   1  1.4210854715202004e-14      30.322500000000009      4.0430000000000135
   295   1  1.4210854715202004e-14      32.344000000000015      2.0215000000000103
   296   1  1.4210854715202004e-14      30.322500000000009      8.0860000000000127
   297   1  1.4210854715202004e-14      32.344000000000015      6.0645000000000095
   298   1  1.4210854715202004e-14      30.322500000000009       12.12900000000001
   299   1  1.4210854715202004e-14      32.344000000000015      10.107500000000012
   300   1  1.4210854715202004e-14      30.322500000000009      16.172000000000011
   301   1  1.4210854715202004e-14      32.344000000000015      14.150500000000012
   302   1  1.4210854715202004e-14      30.322500000000009      20.215000000000011
   303   1  1.4210854715202004e-14      32.344000000000015      18.193500000000011
   304   1  1.4210854715202004e-14      30.322500000000009      24.258000000000013
   305   1  1.4210854715202004e-14      32.344000000000015      22.236500000000014
   306   1  1.4210854715202004e-14      30.322500000000009      28.301000000000009
   307   1  1.4210854715202004e-14      32.344000000000015      26.279500000000013
   308   1  1.4210854715202004e-14      30.322500000000009      32.344000000000015
   309   1  1.4210854715202004e-14      32.344000000000015      30.322500000000009
   310   1  1.4210854715202004e-14      30.322500000000009      36.387000000000008
   311   1  1.4210854715202004e-14      32.344000000000015      34.365500000000004
   312   1  1.4210854715202004e-14      30.322500000000009      40.430000000000014
   313   1  1.4210854715202004e-14      32.344000000000015      38.408500000000011
   314   1  1.4210854715202004e-14      30.322500000000009      44.473000000000013
   315   1  1.4210854715202004e-14      32.344000000000015       42.45150000000001
   316   1  1.4210854715202004e-14      30.322500000000009       48.51600000000002
   317   1  1.4210854715202004e-14      32.344000000000015      46.494500000000016
   318   1  1.4210854715202004e-14      30.322500000000009      52.559000000000012
   319   1  1.4210854715202004e-14      32.344000000000015      50.537500000000009
   320   1  1.4210854715202004e-14      30.322500000000009      56.602000000000011
   321   1  1.4210854715202004e-14      32.344000000000015      54.580500000000008
   322   1  1.4210854715202004e-14      30.322500000000009       60.64500000000001
   323   1  1.4210854715202004e-14      32.344000000000015      58.623500000000007
   324   1  1.4210854715202004e-14      30.322500000000009      64.688000000000002
   325   1  1.4210854715202004e-14      32.344000000000015      62.666500000000006
   326   1  1.4210854715202004e-14      30.322500000000009      68.731000000000009
   327   1  1.4210854715202004e-14      32.344000000000015      66.709500000000006
   328   1  1.4210854715202004e-14      30.322500000000009      72.774000000000015
   329   1  1.4210854715202004e-14      32.344000000000015      70.752500000000012
   330   1  1.4210854715202004e-14      30.322500000000009      0.8170000000000196
   331   1  1.4210854715202004e-14      32.344000000000015      74.795500000000018
   332   1  1.4210854715202004e-14      34.365500000000004  1.4210854715202004e-14
   333   1  1.4210854715202004e-14      34.365500000000004      4.0430000000000135
   334   1  1.4210854715202004e-14      36.387000000000008      2.0215000000000103
   335   1  1.4210854715202004e-14      34.365500000000004      8.0860000000000127
   336   1  1.4210854715202004e-14      36.387000000000008      6.0645000000000095
   337   1  1.4210854715202004e-14      34.365500000000004       12.12900000000001
   338   1  1.4210854715202004e-14      36.387000000000008      10.107500000000012
   339   1  1.4210854715202004e-14      34.365500000000004      16.172000000000011
   340   1  1.4210854715202004e-14      36.387000000000008      14.150500000000012
   341   1  1.4210854715202004e-14      34.365500000000004      20.215000000000011
   342   1  1.4210854715202004e-14      36.387000000000008      18.193500000000011
   343   1  1.4210854715202004e-14      34.365500000000004      24.258000000000013
   344   1  1.4210854715202004e-14      36.387000000000008      22.236500000000014
   345   1  1.4210854715202004e-14      34.365500000000004      28.301000000000009
   346   1  1.4210854715202004e-14      36.387000000000008      26.279500000000013
   347   1  1.4210854715202004e-14      34.365500000000004      32.344000000000015
   348   1  1.4210854715202004e-14      36.387000000000008      30.322500000000009
   349   1  1.4210854715202004e-14      34.365500000000004      36.387000000000008
   350   1  1.4210854715202004e-14      36.387000000000008      34.365500000000004
   351   1  1.4210854715202004e-14      34.365500000000004      40.430000000000014
   352   1  1.4210854715202004e-14      36.387000000000008      38.408500000000011
   353   1  1.4210854715202004e-14      34.365500000000004      44.473000000000013
   354   1  1.4210854715202004e-14      36.387000000000008       42.45150000000001
   355   1  1.4210854715202004e-14      34.365500000000004       48.51600000000002
   356   1  1.4210854715202004e-14      36.387000000000008      46.494500000000016
   357   1  1.4210854715202004e-14      34.365500000000004      52.559000000000012
   358   1  1.4210854715202004e-14      36.387000000000008      50.537500000000009