model_files/Co/Co_30000/Co_110/data.Co_110_hcp_31263 (written by ASE) 

31263 	 atoms 
1  atom types
0.0                      77  xlo xhi
0.0                      77  ylo yhi
0.0                      77  zlo zhi


Atoms 

     1   1      76.999999999999986      36.394999999999996      36.394999999999996
     2   1      1.2549999999999955      35.139999999999993      36.394999999999996
     3   1      1.2549999999999955      36.394999999999996      35.139999999999993
     4   1      76.999999999999986      36.394999999999996      38.904999999999994
     5   1      1.2549999999999955      35.139999999999993      38.904999999999994
     6   1      1.2549999999999955      36.394999999999996      37.649999999999991
     7   1      1.2549999999999955      36.394999999999996      40.159999999999989
     8   1      76.999999999999986      38.904999999999994      36.394999999999996
     9   1      1.2549999999999955      37.649999999999991      36.394999999999996
    10   1      1.2549999999999955      38.904999999999994      35.139999999999993
    11   1      76.999999999999986      37.649999999999991      37.649999999999991
    12   1      76.999999999999986      38.904999999999994      38.904999999999994
    13   1      1.2549999999999955      37.649999999999991      38.904999999999994
    14   1      1.2549999999999955      38.904999999999994      37.649999999999991
    15   1      1.2549999999999955      38.904999999999994      40.159999999999989
    16   1      1.2549999999999955      40.159999999999989      36.394999999999996
    17   1      1.2549999999999955      40.159999999999989      38.904999999999994
    18   1      2.5099999999999909      33.884999999999998      33.884999999999998
    19   1      3.7649999999999935      32.629999999999995      33.884999999999998
    20   1      3.7649999999999935      33.884999999999998      32.629999999999995
    21   1      2.5099999999999909      33.884999999999998      36.394999999999996
    22   1      3.7649999999999935      32.629999999999995      36.394999999999996
    23   1      3.7649999999999935      33.884999999999998      35.139999999999993
    24   1      2.5099999999999909      33.884999999999998      38.904999999999994
    25   1      3.7649999999999935      32.629999999999995      38.904999999999994
    26   1      3.7649999999999935      33.884999999999998      37.649999999999991
    27   1      2.5099999999999909      33.884999999999998      41.414999999999999
    28   1      3.7649999999999935      32.629999999999995      41.414999999999999
    29   1      3.7649999999999935      33.884999999999998      40.159999999999989
    30   1      3.7649999999999935      33.884999999999998      42.669999999999995
    31   1      2.5099999999999909      36.394999999999996      33.884999999999998
    32   1      3.7649999999999935      35.139999999999993      33.884999999999998
    33   1      3.7649999999999935      36.394999999999996      32.629999999999995
    34   1      2.5099999999999909      35.139999999999993      35.139999999999993
    35   1      2.5099999999999909      36.394999999999996      36.394999999999996
    36   1      3.7649999999999935      35.139999999999993      36.394999999999996
    37   1      3.7649999999999935      36.394999999999996      35.139999999999993
    38   1      2.5099999999999909      35.139999999999993      37.649999999999991
    39   1      2.5099999999999909      36.394999999999996      38.904999999999994
    40   1      3.7649999999999935      35.139999999999993      38.904999999999994
    41   1      3.7649999999999935      36.394999999999996      37.649999999999991
    42   1      2.5099999999999909      35.139999999999993      40.159999999999989
    43   1      2.5099999999999909      36.394999999999996      41.414999999999999
    44   1      3.7649999999999935      35.139999999999993      41.414999999999999
    45   1      3.7649999999999935      36.394999999999996      40.159999999999989
    46   1      3.7649999999999935      36.394999999999996      42.669999999999995
    47   1      2.5099999999999909      38.904999999999994      33.884999999999998
    48   1      3.7649999999999935      37.649999999999991      33.884999999999998
    49   1      3.7649999999999935      38.904999999999994      32.629999999999995
    50   1      2.5099999999999909      37.649999999999991      35.139999999999993
    51   1      2.5099999999999909      38.904999999999994      36.394999999999996
    52   1      3.7649999999999935      37.649999999999991      36.394999999999996
    53   1      3.7649999999999935      38.904999999999994      35.139999999999993
    54   1      2.5099999999999909      37.649999999999991      37.649999999999991
    55   1      2.5099999999999909      38.904999999999994      38.904999999999994
    56   1      3.7649999999999935      37.649999999999991      38.904999999999994
    57   1      3.7649999999999935      38.904999999999994      37.649999999999991
    58   1      2.5099999999999909      37.649999999999991      40.159999999999989
    59   1      2.5099999999999909      38.904999999999994      41.414999999999999
    60   1      3.7649999999999935      37.649999999999991      41.414999999999999
    61   1      3.7649999999999935      38.904999999999994      40.159999999999989
    62   1      3.7649999999999935      38.904999999999994      42.669999999999995
    63   1      2.5099999999999909      41.414999999999999      33.884999999999998
    64   1      3.7649999999999935      40.159999999999989      33.884999999999998
    65   1      3.7649999999999935      41.414999999999999      32.629999999999995
    66   1      2.5099999999999909      40.159999999999989      35.139999999999993
    67   1      2.5099999999999909      41.414999999999999      36.394999999999996
    68   1      3.7649999999999935      40.159999999999989      36.394999999999996
    69   1      3.7649999999999935      41.414999999999999      35.139999999999993
    70   1      2.5099999999999909      40.159999999999989      37.649999999999991
    71   1      2.5099999999999909      41.414999999999999      38.904999999999994
    72   1      3.7649999999999935      40.159999999999989      38.904999999999994
    73   1      3.7649999999999935      41.414999999999999      37.649999999999991
    74   1      2.5099999999999909      40.159999999999989      40.159999999999989
    75   1      2.5099999999999909      41.414999999999999      41.414999999999999
    76   1      3.7649999999999935      40.159999999999989      41.414999999999999
    77   1      3.7649999999999935      41.414999999999999      40.159999999999989
    78   1      3.7649999999999935      41.414999999999999      42.669999999999995
    79   1      3.7649999999999935      42.669999999999995      33.884999999999998
    80   1      3.7649999999999935      42.669999999999995      36.394999999999996
    81   1      3.7649999999999935      42.669999999999995      38.904999999999994
    82   1      3.7649999999999935      42.669999999999995      41.414999999999999
    83   1      5.0199999999999969      31.374999999999996      31.374999999999996
    84   1      6.2749999999999959       30.11999999999999      31.374999999999996
    85   1      6.2749999999999959      31.374999999999996       30.11999999999999
    86   1      5.0199999999999969      31.374999999999996      33.884999999999998
    87   1      6.2749999999999959       30.11999999999999      33.884999999999998
    88   1      6.2749999999999959      31.374999999999996      32.629999999999995
    89   1      5.0199999999999969      31.374999999999996      36.394999999999996
    90   1      6.2749999999999959       30.11999999999999      36.394999999999996
    91   1      6.2749999999999959      31.374999999999996      35.139999999999993
    92   1      5.0199999999999969      31.374999999999996      38.904999999999994
    93   1      6.2749999999999959       30.11999999999999      38.904999999999994
    94   1      6.2749999999999959      31.374999999999996      37.649999999999991
    95   1      5.0199999999999969      31.374999999999996      41.414999999999999
    96   1      6.2749999999999959       30.11999999999999      41.414999999999999
    97   1      6.2749999999999959      31.374999999999996      40.159999999999989
    98   1      5.0199999999999969      31.374999999999996       43.92499999999999
    99   1      6.2749999999999959       30.11999999999999       43.92499999999999
   100   1      6.2749999999999959      31.374999999999996      42.669999999999995
   101   1      6.2749999999999959      31.374999999999996      45.179999999999993
   102   1      5.0199999999999969      33.884999999999998      31.374999999999996
   103   1      6.2749999999999959      32.629999999999995      31.374999999999996
   104   1      6.2749999999999959      33.884999999999998       30.11999999999999
   105   1      5.0199999999999969      32.629999999999995      32.629999999999995
   106   1      5.0199999999999969      33.884999999999998      33.884999999999998
   107   1      6.2749999999999959      32.629999999999995      33.884999999999998
   108   1      6.2749999999999959      33.884999999999998      32.629999999999995
   109   1      5.0199999999999969      32.629999999999995      35.139999999999993
   110   1      5.0199999999999969      33.884999999999998      36.394999999999996
   111   1      6.2749999999999959      32.629999999999995      36.394999999999996
   112   1      6.2749999999999959      33.884999999999998      35.139999999999993
   113   1      5.0199999999999969      32.629999999999995      37.649999999999991
   114   1      5.0199999999999969      33.884999999999998      38.904999999999994
   115   1      6.2749999999999959      32.629999999999995      38.904999999999994
   116   1      6.2749999999999959      33.884999999999998      37.649999999999991
   117   1      5.0199999999999969      32.629999999999995      40.159999999999989
   118   1      5.0199999999999969      33.884999999999998      41.414999999999999
   119   1      6.2749999999999959      32.629999999999995      41.414999999999999
   120   1      6.2749999999999959      33.884999999999998      40.159999999999989
   121   1      5.0199999999999969      32.629999999999995      42.669999999999995
   122   1      5.0199999999999969      33.884999999999998       43.92499999999999
   123   1      6.2749999999999959      32.629999999999995       43.92499999999999
   124   1      6.2749999999999959      33.884999999999998      42.669999999999995
   125   1      6.2749999999999959      33.884999999999998      45.179999999999993
   126   1      5.0199999999999969      36.394999999999996      31.374999999999996
   127   1      6.2749999999999959      35.139999999999993      31.374999999999996
   128   1      6.2749999999999959      36.394999999999996       30.11999999999999
   129   1      5.0199999999999969      35.139999999999993      32.629999999999995
   130   1      5.0199999999999969      36.394999999999996      33.884999999999998
   131   1      6.2749999999999959      35.139999999999993      33.884999999999998
   132   1      6.2749999999999959      36.394999999999996      32.629999999999995
   133   1      5.0199999999999969      35.139999999999993      35.139999999999993
   134   1      5.0199999999999969      36.394999999999996      36.394999999999996
   135   1      6.2749999999999959      35.139999999999993      36.394999999999996
   136   1      6.2749999999999959      36.394999999999996      35.139999999999993
   137   1      5.0199999999999969      35.139999999999993      37.649999999999991
   138   1      5.0199999999999969      36.394999999999996      38.904999999999994
   139   1      6.2749999999999959      35.139999999999993      38.904999999999994
   140   1      6.2749999999999959      36.394999999999996      37.649999999999991
   141   1      5.0199999999999969      35.139999999999993      40.159999999999989
   142   1      5.0199999999999969      36.394999999999996      41.414999999999999
   143   1      6.2749999999999959      35.139999999999993      41.414999999999999
   144   1      6.2749999999999959      36.394999999999996      40.159999999999989
   145   1      5.0199999999999969      35.139999999999993      42.669999999999995
   146   1      5.0199999999999969      36.394999999999996       43.92499999999999
   147   1      6.2749999999999959      35.139999999999993       43.92499999999999
   148   1      6.2749999999999959      36.394999999999996      42.669999999999995
   149   1      6.2749999999999959      36.394999999999996      45.179999999999993
   150   1      5.0199999999999969      38.904999999999994      31.374999999999996
   151   1      6.2749999999999959      37.649999999999991      31.374999999999996
   152   1      6.2749999999999959      38.904999999999994       30.11999999999999
   153   1      5.0199999999999969      37.649999999999991      32.629999999999995
   154   1      5.0199999999999969      38.904999999999994      33.884999999999998
   155   1      6.2749999999999959      37.649999999999991      33.884999999999998
   156   1      6.2749999999999959      38.904999999999994      32.629999999999995
   157   1      5.0199999999999969      37.649999999999991      35.139999999999993
   158   1      5.0199999999999969      38.904999999999994      36.394999999999996
   159   1      6.2749999999999959      37.649999999999991      36.394999999999996
   160   1      6.2749999999999959      38.904999999999994      35.139999999999993
   161   1      5.0199999999999969      37.649999999999991      37.649999999999991
   162   1      5.0199999999999969      38.904999999999994      38.904999999999994
   163   1      6.2749999999999959      37.649999999999991      38.904999999999994
   164   1      6.2749999999999959      38.904999999999994      37.649999999999991
   165   1      5.0199999999999969      37.649999999999991      40.159999999999989
   166   1      5.0199999999999969      38.904999999999994      41.414999999999999
   167   1      6.2749999999999959      37.649999999999991      41.414999999999999
   168   1      6.2749999999999959      38.904999999999994      40.159999999999989
   169   1      5.0199999999999969      37.649999999999991      42.669999999999995
   170   1      5.0199999999999969      38.904999999999994       43.92499999999999
   171   1      6.2749999999999959      37.649999999999991       43.92499999999999
   172   1      6.2749999999999959      38.904999999999994      42.669999999999995
   173   1      6.2749999999999959      38.904999999999994      45.179999999999993
   174   1      5.0199999999999969      41.414999999999999      31.374999999999996
   175   1      6.2749999999999959      40.159999999999989      31.374999999999996
   176   1      6.2749999999999959      41.414999999999999       30.11999999999999
   177   1      5.0199999999999969      40.159999999999989      32.629999999999995
   178   1      5.0199999999999969      41.414999999999999      33.884999999999998
   179   1      6.2749999999999959      40.159999999999989      33.884999999999998
   180   1      6.2749999999999959      41.414999999999999      32.629999999999995
   181   1      5.0199999999999969      40.159999999999989      35.139999999999993
   182   1      5.0199999999999969      41.414999999999999      36.394999999999996
   183   1      6.2749999999999959      40.159999999999989      36.394999999999996
   184   1      6.2749999999999959      41.414999999999999      35.139999999999993
   185   1      5.0199999999999969      40.159999999999989      37.649999999999991
   186   1      5.0199999999999969      41.414999999999999      38.904999999999994
   187   1      6.2749999999999959      40.159999999999989      38.904999999999994
   188   1      6.2749999999999959      41.414999999999999      37.649999999999991
   189   1      5.0199999999999969      40.159999999999989      40.159999999999989
   190   1      5.0199999999999969      41.414999999999999      41.414999999999999
   191   1      6.2749999999999959      40.159999999999989      41.414999999999999
   192   1      6.2749999999999959      41.414999999999999      40.159999999999989
   193   1      5.0199999999999969      40.159999999999989      42.669999999999995
   194   1      5.0199999999999969      41.414999999999999       43.92499999999999
   195   1      6.2749999999999959      40.159999999999989       43.92499999999999
   196   1      6.2749999999999959      41.414999999999999      42.669999999999995
   197   1      6.2749999999999959      41.414999999999999      45.179999999999993
   198   1      5.0199999999999969       43.92499999999999      31.374999999999996
   199   1      6.2749999999999959      42.669999999999995      31.374999999999996
   200   1      6.2749999999999959       43.92499999999999       30.11999999999999
   201   1      5.0199999999999969      42.669999999999995      32.629999999999995
   202   1      5.0199999999999969       43.92499999999999      33.884999999999998
   203   1      6.2749999999999959      42.669999999999995      33.884999999999998
   204   1      6.2749999999999959       43.92499999999999      32.629999999999995
   205   1      5.0199999999999969      42.669999999999995      35.139999999999993
   206   1      5.0199999999999969       43.92499999999999      36.394999999999996
   207   1      6.2749999999999959      42.669999999999995      36.394999999999996
   208   1      6.2749999999999959       43.92499999999999      35.139999999999993
   209   1      5.0199999999999969      42.669999999999995      37.649999999999991
   210   1      5.0199999999999969       43.92499999999999      38.904999999999994
   211   1      6.2749999999999959      42.669999999999995      38.904999999999994
   212   1      6.2749999999999959       43.92499999999999      37.649999999999991
   213   1      5.0199999999999969      42.669999999999995      40.159999999999989
   214   1      5.0199999999999969       43.92499999999999      41.414999999999999
   215   1      6.2749999999999959      42.669999999999995      41.414999999999999
   216   1      6.2749999999999959       43.92499999999999      40.159999999999989
   217   1      5.0199999999999969      42.669999999999995      42.669999999999995
   218   1      5.0199999999999969       43.92499999999999       43.92499999999999
   219   1      6.2749999999999959      42.669999999999995       43.92499999999999
   220   1      6.2749999999999959       43.92499999999999      42.669999999999995
   221   1      6.2749999999999959       43.92499999999999      45.179999999999993
   222   1      6.2749999999999959      45.179999999999993      31.374999999999996
   223   1      6.2749999999999959      45.179999999999993      33.884999999999998
   224   1      6.2749999999999959      45.179999999999993      36.394999999999996
   225   1      6.2749999999999959      45.179999999999993      38.904999999999994
   226   1      6.2749999999999959      45.179999999999993      41.414999999999999
   227   1      6.2749999999999959      45.179999999999993       43.92499999999999
   228   1      7.5299999999999949      28.864999999999995      28.864999999999995
   229   1       8.784999999999993      27.609999999999992      28.864999999999995
   230   1       8.784999999999993      28.864999999999995      27.609999999999992
   231   1      7.5299999999999949      28.864999999999995      31.374999999999996
   232   1       8.784999999999993      27.609999999999992      31.374999999999996
   233   1       8.784999999999993      28.864999999999995       30.11999999999999
   234   1      7.5299999999999949      28.864999999999995      33.884999999999998
   235   1       8.784999999999993      27.609999999999992      33.884999999999998
   236   1       8.784999999999993      28.864999999999995      32.629999999999995
   237   1      7.5299999999999949      28.864999999999995      36.394999999999996
   238   1       8.784999999999993      27.609999999999992      36.394999999999996
   239   1       8.784999999999993      28.864999999999995      35.139999999999993
   240   1      7.5299999999999949      28.864999999999995      38.904999999999994
   241   1       8.784999999999993      27.609999999999992      38.904999999999994
   242   1       8.784999999999993      28.864999999999995      37.649999999999991
   243   1      7.5299999999999949      28.864999999999995      41.414999999999999
   244   1       8.784999999999993      27.609999999999992      41.414999999999999
   245   1       8.784999999999993      28.864999999999995      40.159999999999989
   246   1      7.5299999999999949      28.864999999999995       43.92499999999999
   247   1       8.784999999999993      27.609999999999992       43.92499999999999
   248   1       8.784999999999993      28.864999999999995      42.669999999999995
   249   1      7.5299999999999949      28.864999999999995      46.435000000000002
   250   1       8.784999999999993      27.609999999999992      46.435000000000002
   251   1       8.784999999999993      28.864999999999995      45.179999999999993
   252   1       8.784999999999993      28.864999999999995      47.689999999999998
   253   1      7.5299999999999949      31.374999999999996      28.864999999999995
   254   1       8.784999999999993       30.11999999999999      28.864999999999995
   255   1       8.784999999999993      31.374999999999996      27.609999999999992
   256   1      7.5299999999999949       30.11999999999999       30.11999999999999
   257   1      7.5299999999999949      31.374999999999996      31.374999999999996
   258   1       8.784999999999993       30.11999999999999      31.374999999999996
   259   1       8.784999999999993      31.374999999999996       30.11999999999999
   260   1      7.5299999999999949       30.11999999999999      32.629999999999995
   261   1      7.5299999999999949      31.374999999999996      33.884999999999998
   262   1       8.784999999999993       30.11999999999999      33.884999999999998
   263   1       8.784999999999993      31.374999999999996      32.629999999999995
   264   1      7.5299999999999949       30.11999999999999      35.139999999999993
   265   1      7.5299999999999949      31.374999999999996      36.394999999999996
   266   1       8.784999999999993       30.11999999999999      36.394999999999996
   267   1       8.784999999999993      31.374999999999996      35.139999999999993
   268   1      7.5299999999999949       30.11999999999999      37.649999999999991
   269   1      7.5299999999999949      31.374999999999996      38.904999999999994
   270   1       8.784999999999993       30.11999999999999      38.904999999999994
   271   1       8.784999999999993      31.374999999999996      37.649999999999991
   272   1      7.5299999999999949       30.11999999999999      40.159999999999989
   273   1      7.5299999999999949      31.374999999999996      41.414999999999999
   274   1       8.784999999999993       30.11999999999999      41.414999999999999
   275   1       8.784999999999993      31.374999999999996      40.159999999999989
   276   1      7.5299999999999949       30.11999999999999      42.669999999999995
   277   1      7.5299999999999949      31.374999999999996       43.92499999999999
   278   1       8.784999999999993       30.11999999999999       43.92499999999999
   279   1       8.784999999999993      31.374999999999996      42.669999999999995
   280   1      7.5299999999999949       30.11999999999999      45.179999999999993
   281   1      7.5299999999999949      31.374999999999996      46.435000000000002
   282   1       8.784999999999993       30.11999999999999      46.435000000000002
   283   1       8.784999999999993      31.374999999999996      45.179999999999993
   284   1       8.784999999999993      31.374999999999996      47.689999999999998
   285   1      7.5299999999999949      33.884999999999998      28.864999999999995
   286   1       8.784999999999993      32.629999999999995      28.864999999999995
   287   1       8.784999999999993      33.884999999999998      27.609999999999992
   288   1      7.5299999999999949      32.629999999999995       30.11999999999999
   289   1      7.5299999999999949      33.884999999999998      31.374999999999996
   290   1       8.784999999999993      32.629999999999995      31.374999999999996
   291   1       8.784999999999993      33.884999999999998       30.11999999999999
   292   1      7.5299999999999949      32.629999999999995      32.629999999999995
   293   1      7.5299999999999949      33.884999999999998      33.884999999999998
   294   1       8.784999999999993      32.629999999999995      33.884999999999998
   295   1       8.784999999999993      33.884999999999998      32.629999999999995
   296   1      7.5299999999999949      32.629999999999995      35.139999999999993
   297   1      7.5299999999999949      33.884999999999998      36.394999999999996
   298   1       8.784999999999993      32.629999999999995      36.394999999999996
   299   1       8.784999999999993      33.884999999999998      35.139999999999993
   300   1      7.5299999999999949      32.629999999999995      37.649999999999991
   301   1      7.5299999999999949      33.884999999999998      38.904999999999994
   302   1       8.784999999999993      32.629999999999995      38.904999999999994
   303   1       8.784999999999993      33.884999999999998      37.649999999999991
   304   1      7.5299999999999949      32.629999999999995      40.159999999999989
   305   1      7.5299999999999949      33.884999999999998      41.414999999999999
   306   1       8.784999999999993      32.629999999999995      41.414999999999999
   307   1       8.784999999999993      33.884999999999998      40.159999999999989
   308   1      7.5299999999999949      32.629999999999995      42.669999999999995
   309   1      7.5299999999999949      33.884999999999998       43.92499999999999
   310   1       8.784999999999993      32.629999999999995       43.92499999999999
   311   1       8.784999999999993      33.884999999999998      42.669999999999995
   312   1      7.5299999999999949      32.629999999999995      45.179999999999993
   313   1      7.5299999999999949      33.884999999999998      46.435000000000002
   314   1       8.784999999999993      32.629999999999995      46.435000000000002
   315   1       8.784999999999993      33.884999999999998      45.179999999999993
   316   1       8.784999999999993      33.884999999999998      47.689999999999998
   317   1      7.5299999999999949      36.394999999999996      28.864999999999995
   318   1       8.784999999999993      35.139999999999993      28.864999999999995
   319   1       8.784999999999993      36.394999999999996      27.609999999999992
   320   1      7.5299999999999949      35.139999999999993       30.11999999999999
   321   1      7.5299999999999949      36.394999999999996      31.374999999999996
   322   1       8.784999999999993      35.139999999999993      31.374999999999996
   323   1       8.784999999999993      36.394999999999996       30.11999999999999
   324   1      7.5299999999999949      35.139999999999993      32.629999999999995
   325   1      7.5299999999999949      36.394999999999996      33.884999999999998
   326   1       8.784999999999993      35.139999999999993      33.884999999999998
   327   1       8.784999999999993      36.394999999999996      32.629999999999995
   328   1      7.5299999999999949      35.139999999999993      35.139999999999993
   329   1      7.5299999999999949      36.394999999999996      36.394999999999996
   330   1       8.784999999999993      35.139999999999993      36.394999999999996
   331   1       8.784999999999993      36.394999999999996      35.139999999999993
   332   1      7.5299999999999949      35.139999999999993      37.649999999999991
   333   1      7.5299999999999949      36.394999999999996      38.904999999999994
   334   1       8.784999999999993      35.139999999999993      38.904999999999994
   335   1       8.784999999999993      36.394999999999996      37.649999999999991
   336   1      7.5299999999999949      35.139999999999993      40.159999999999989
   337   1      7.5299999999999949      36.394999999999996      41.414999999999999
   338   1       8.784999999999993      35.139999999999993      41.414999999999999
   339   1       8.784999999999993      36.394999999999996      40.159999999999989
   340   1      7.5299999999999949      35.139999999999993      42.669999999999995
   341   1      7.5299999999999949      36.394999999999996       43.92499999999999
   342   1       8.784999999999993      35.139999999999993       43.92499999999999
   343   1       8.784999999999993      36.394999999999996      42.669999999999995
   344   1      7.5299999999999949      35.139999999999993      45.179999999999993
   345   1      7.5299999999999949      36.394999999999996      46.435000000000002
   346   1       8.784999999999993      35.139999999999993      46.435000000000002
   347   1       8.784999999999993      36.394999999999996      45.179999999999993
   348   1       8.784999999999993      36.394999999999996      47.689999999999998
   349   1      7.5299999999999949      38.904999999999994      28.864999999999995
   350   1       8.784999999999993      37.649999999999991      28.864999999999995
   351   1       8.784999999999993      38.904999999999994      27.609999999999992
   352   1      7.5299999999999949      37.649999999999991       30.11999999999999
   353   1      7.5299999999999949      38.904999999999994      31.374999999999996
   354   1       8.784999999999993      37.649999999999991      31.374999999999996
   355   1       8.784999999999993      38.904999999999994       30.11999999999999
   356   1      7.5299999999999949      37.649999999999991      32.629999999999995
   357   1      7.5299999999999949      38.904999999999994      33.884999999999998
   358   1       8.784999999999993      37.649999999999991      33.884999999999998