model_files/Co/Co_30000/Co_430/data.Co_430_hcp_29909 (written by ASE) 

29909 	 atoms 
1  atom types
0.0                      70  xlo xhi
0.0                      70  ylo yhi
0.0                      70  zlo zhi


Atoms 

     1   1      1.2549999999999955      33.884999999999998      35.139999999999993
     2   1      1.2549999999999955      35.139999999999993      33.884999999999998
     3   1      69.999999999999986      35.139999999999993      35.139999999999993
     4   1      1.2549999999999955      35.139999999999993      36.394999999999996
     5   1      1.2549999999999955      36.394999999999996      35.139999999999993
     6   1       2.509999999999998      31.374999999999993      31.374999999999993
     7   1      3.7649999999999935       30.11999999999999      31.374999999999993
     8   1      3.7649999999999935      31.374999999999993       30.11999999999999
     9   1       2.509999999999998      31.374999999999993      33.884999999999998
    10   1      3.7649999999999935       30.11999999999999      33.884999999999998
    11   1      3.7649999999999935      31.374999999999993      32.629999999999995
    12   1       2.509999999999998      31.374999999999993      36.394999999999996
    13   1      3.7649999999999935       30.11999999999999      36.394999999999996
    14   1      3.7649999999999935      31.374999999999993      35.139999999999993
    15   1       2.509999999999998      31.374999999999993      38.904999999999994
    16   1      3.7649999999999935       30.11999999999999      38.904999999999994
    17   1      3.7649999999999935      31.374999999999993      37.649999999999991
    18   1      3.7649999999999935      31.374999999999993      40.159999999999982
    19   1       2.509999999999998      33.884999999999998      31.374999999999993
    20   1      3.7649999999999935      32.629999999999995      31.374999999999993
    21   1      3.7649999999999935      33.884999999999998       30.11999999999999
    22   1       2.509999999999998      32.629999999999995      32.629999999999995
    23   1       2.509999999999998      33.884999999999998      33.884999999999998
    24   1      3.7649999999999935      32.629999999999995      33.884999999999998
    25   1      3.7649999999999935      33.884999999999998      32.629999999999995
    26   1       2.509999999999998      32.629999999999995      35.139999999999993
    27   1       2.509999999999998      33.884999999999998      36.394999999999996
    28   1      3.7649999999999935      32.629999999999995      36.394999999999996
    29   1      3.7649999999999935      33.884999999999998      35.139999999999993
    30   1       2.509999999999998      32.629999999999995      37.649999999999991
    31   1       2.509999999999998      33.884999999999998      38.904999999999994
    32   1      3.7649999999999935      32.629999999999995      38.904999999999994
    33   1      3.7649999999999935      33.884999999999998      37.649999999999991
    34   1      3.7649999999999935      33.884999999999998      40.159999999999982
    35   1       2.509999999999998      36.394999999999996      31.374999999999993
    36   1      3.7649999999999935      35.139999999999993      31.374999999999993
    37   1      3.7649999999999935      36.394999999999996       30.11999999999999
    38   1       2.509999999999998      35.139999999999993      32.629999999999995
    39   1       2.509999999999998      36.394999999999996      33.884999999999998
    40   1      3.7649999999999935      35.139999999999993      33.884999999999998
    41   1      3.7649999999999935      36.394999999999996      32.629999999999995
    42   1       2.509999999999998      35.139999999999993      35.139999999999993
    43   1       2.509999999999998      36.394999999999996      36.394999999999996
    44   1      3.7649999999999935      35.139999999999993      36.394999999999996
    45   1      3.7649999999999935      36.394999999999996      35.139999999999993
    46   1       2.509999999999998      35.139999999999993      37.649999999999991
    47   1       2.509999999999998      36.394999999999996      38.904999999999994
    48   1      3.7649999999999935      35.139999999999993      38.904999999999994
    49   1      3.7649999999999935      36.394999999999996      37.649999999999991
    50   1      3.7649999999999935      36.394999999999996      40.159999999999982
    51   1       2.509999999999998      38.904999999999994      31.374999999999993
    52   1      3.7649999999999935      37.649999999999991      31.374999999999993
    53   1      3.7649999999999935      38.904999999999994       30.11999999999999
    54   1       2.509999999999998      37.649999999999991      32.629999999999995
    55   1       2.509999999999998      38.904999999999994      33.884999999999998
    56   1      3.7649999999999935      37.649999999999991      33.884999999999998
    57   1      3.7649999999999935      38.904999999999994      32.629999999999995
    58   1       2.509999999999998      37.649999999999991      35.139999999999993
    59   1       2.509999999999998      38.904999999999994      36.394999999999996
    60   1      3.7649999999999935      37.649999999999991      36.394999999999996
    61   1      3.7649999999999935      38.904999999999994      35.139999999999993
    62   1       2.509999999999998      37.649999999999991      37.649999999999991
    63   1       2.509999999999998      38.904999999999994      38.904999999999994
    64   1      3.7649999999999935      37.649999999999991      38.904999999999994
    65   1      3.7649999999999935      38.904999999999994      37.649999999999991
    66   1      3.7649999999999935      38.904999999999994      40.159999999999982
    67   1      3.7649999999999935      40.159999999999982      31.374999999999993
    68   1      3.7649999999999935      40.159999999999982      33.884999999999998
    69   1      3.7649999999999935      40.159999999999982      36.394999999999996
    70   1      3.7649999999999935      40.159999999999982      38.904999999999994
    71   1       6.274999999999995      26.354999999999993      27.609999999999992
    72   1       6.274999999999995      26.354999999999993       30.11999999999999
    73   1       6.274999999999995      26.354999999999993      32.629999999999995
    74   1       6.274999999999995      26.354999999999993      35.139999999999993
    75   1       6.274999999999995      26.354999999999993      37.649999999999991
    76   1       6.274999999999995      26.354999999999993      40.159999999999982
    77   1       6.274999999999995      26.354999999999993       42.66999999999998
    78   1       6.274999999999995      27.609999999999992      26.354999999999993
    79   1       5.019999999999996      28.864999999999988      28.864999999999988
    80   1       6.274999999999995      27.609999999999992      28.864999999999988
    81   1       6.274999999999995      28.864999999999988      27.609999999999992
    82   1       5.019999999999996      28.864999999999988      31.374999999999993
    83   1       6.274999999999995      27.609999999999992      31.374999999999993
    84   1       6.274999999999995      28.864999999999988       30.11999999999999
    85   1       5.019999999999996      28.864999999999988      33.884999999999998
    86   1       6.274999999999995      27.609999999999992      33.884999999999998
    87   1       6.274999999999995      28.864999999999988      32.629999999999995
    88   1       5.019999999999996      28.864999999999988      36.394999999999996
    89   1       6.274999999999995      27.609999999999992      36.394999999999996
    90   1       6.274999999999995      28.864999999999988      35.139999999999993
    91   1       5.019999999999996      28.864999999999988      38.904999999999994
    92   1       6.274999999999995      27.609999999999992      38.904999999999994
    93   1       6.274999999999995      28.864999999999988      37.649999999999991
    94   1       5.019999999999996      28.864999999999988      41.414999999999992
    95   1       6.274999999999995      27.609999999999992      41.414999999999992
    96   1       6.274999999999995      28.864999999999988      40.159999999999982
    97   1       6.274999999999995      27.609999999999992       43.92499999999999
    98   1       6.274999999999995      28.864999999999988       42.66999999999998
    99   1       6.274999999999995       30.11999999999999      26.354999999999993
   100   1       5.019999999999996      31.374999999999993      28.864999999999988
   101   1       6.274999999999995       30.11999999999999      28.864999999999988
   102   1       6.274999999999995      31.374999999999993      27.609999999999992
   103   1       5.019999999999996       30.11999999999999       30.11999999999999
   104   1       5.019999999999996      31.374999999999993      31.374999999999993
   105   1       6.274999999999995       30.11999999999999      31.374999999999993
   106   1       6.274999999999995      31.374999999999993       30.11999999999999
   107   1       5.019999999999996       30.11999999999999      32.629999999999995
   108   1       5.019999999999996      31.374999999999993      33.884999999999998
   109   1       6.274999999999995       30.11999999999999      33.884999999999998
   110   1       6.274999999999995      31.374999999999993      32.629999999999995
   111   1       5.019999999999996       30.11999999999999      35.139999999999993
   112   1       5.019999999999996      31.374999999999993      36.394999999999996
   113   1       6.274999999999995       30.11999999999999      36.394999999999996
   114   1       6.274999999999995      31.374999999999993      35.139999999999993
   115   1       5.019999999999996       30.11999999999999      37.649999999999991
   116   1       5.019999999999996      31.374999999999993      38.904999999999994
   117   1       6.274999999999995       30.11999999999999      38.904999999999994
   118   1       6.274999999999995      31.374999999999993      37.649999999999991
   119   1       5.019999999999996       30.11999999999999      40.159999999999982
   120   1       5.019999999999996      31.374999999999993      41.414999999999992
   121   1       6.274999999999995       30.11999999999999      41.414999999999992
   122   1       6.274999999999995      31.374999999999993      40.159999999999982
   123   1       6.274999999999995       30.11999999999999       43.92499999999999
   124   1       6.274999999999995      31.374999999999993       42.66999999999998
   125   1       6.274999999999995      32.629999999999995      26.354999999999993
   126   1       5.019999999999996      33.884999999999998      28.864999999999988
   127   1       6.274999999999995      32.629999999999995      28.864999999999988
   128   1       6.274999999999995      33.884999999999998      27.609999999999992
   129   1       5.019999999999996      32.629999999999995       30.11999999999999
   130   1       5.019999999999996      33.884999999999998      31.374999999999993
   131   1       6.274999999999995      32.629999999999995      31.374999999999993
   132   1       6.274999999999995      33.884999999999998       30.11999999999999
   133   1       5.019999999999996      32.629999999999995      32.629999999999995
   134   1       5.019999999999996      33.884999999999998      33.884999999999998
   135   1       6.274999999999995      32.629999999999995      33.884999999999998
   136   1       6.274999999999995      33.884999999999998      32.629999999999995
   137   1       5.019999999999996      32.629999999999995      35.139999999999993
   138   1       5.019999999999996      33.884999999999998      36.394999999999996
   139   1       6.274999999999995      32.629999999999995      36.394999999999996
   140   1       6.274999999999995      33.884999999999998      35.139999999999993
   141   1       5.019999999999996      32.629999999999995      37.649999999999991
   142   1       5.019999999999996      33.884999999999998      38.904999999999994
   143   1       6.274999999999995      32.629999999999995      38.904999999999994
   144   1       6.274999999999995      33.884999999999998      37.649999999999991
   145   1       5.019999999999996      32.629999999999995      40.159999999999982
   146   1       5.019999999999996      33.884999999999998      41.414999999999992
   147   1       6.274999999999995      32.629999999999995      41.414999999999992
   148   1       6.274999999999995      33.884999999999998      40.159999999999982
   149   1       6.274999999999995      32.629999999999995       43.92499999999999
   150   1       6.274999999999995      33.884999999999998       42.66999999999998
   151   1       6.274999999999995      35.139999999999993      26.354999999999993
   152   1       5.019999999999996      36.394999999999996      28.864999999999988
   153   1       6.274999999999995      35.139999999999993      28.864999999999988
   154   1       6.274999999999995      36.394999999999996      27.609999999999992
   155   1       5.019999999999996      35.139999999999993       30.11999999999999
   156   1       5.019999999999996      36.394999999999996      31.374999999999993
   157   1       6.274999999999995      35.139999999999993      31.374999999999993
   158   1       6.274999999999995      36.394999999999996       30.11999999999999
   159   1       5.019999999999996      35.139999999999993      32.629999999999995
   160   1       5.019999999999996      36.394999999999996      33.884999999999998
   161   1       6.274999999999995      35.139999999999993      33.884999999999998
   162   1       6.274999999999995      36.394999999999996      32.629999999999995
   163   1       5.019999999999996      35.139999999999993      35.139999999999993
   164   1       5.019999999999996      36.394999999999996      36.394999999999996
   165   1       6.274999999999995      35.139999999999993      36.394999999999996
   166   1       6.274999999999995      36.394999999999996      35.139999999999993
   167   1       5.019999999999996      35.139999999999993      37.649999999999991
   168   1       5.019999999999996      36.394999999999996      38.904999999999994
   169   1       6.274999999999995      35.139999999999993      38.904999999999994
   170   1       6.274999999999995      36.394999999999996      37.649999999999991
   171   1       5.019999999999996      35.139999999999993      40.159999999999982
   172   1       5.019999999999996      36.394999999999996      41.414999999999992
   173   1       6.274999999999995      35.139999999999993      41.414999999999992
   174   1       6.274999999999995      36.394999999999996      40.159999999999982
   175   1       6.274999999999995      35.139999999999993       43.92499999999999
   176   1       6.274999999999995      36.394999999999996       42.66999999999998
   177   1       6.274999999999995      37.649999999999991      26.354999999999993
   178   1       5.019999999999996      38.904999999999994      28.864999999999988
   179   1       6.274999999999995      37.649999999999991      28.864999999999988
   180   1       6.274999999999995      38.904999999999994      27.609999999999992
   181   1       5.019999999999996      37.649999999999991       30.11999999999999
   182   1       5.019999999999996      38.904999999999994      31.374999999999993
   183   1       6.274999999999995      37.649999999999991      31.374999999999993
   184   1       6.274999999999995      38.904999999999994       30.11999999999999
   185   1       5.019999999999996      37.649999999999991      32.629999999999995
   186   1       5.019999999999996      38.904999999999994      33.884999999999998
   187   1       6.274999999999995      37.649999999999991      33.884999999999998
   188   1       6.274999999999995      38.904999999999994      32.629999999999995
   189   1       5.019999999999996      37.649999999999991      35.139999999999993
   190   1       5.019999999999996      38.904999999999994      36.394999999999996
   191   1       6.274999999999995      37.649999999999991      36.394999999999996
   192   1       6.274999999999995      38.904999999999994      35.139999999999993
   193   1       5.019999999999996      37.649999999999991      37.649999999999991
   194   1       5.019999999999996      38.904999999999994      38.904999999999994
   195   1       6.274999999999995      37.649999999999991      38.904999999999994
   196   1       6.274999999999995      38.904999999999994      37.649999999999991
   197   1       5.019999999999996      37.649999999999991      40.159999999999982
   198   1       5.019999999999996      38.904999999999994      41.414999999999992
   199   1       6.274999999999995      37.649999999999991      41.414999999999992
   200   1       6.274999999999995      38.904999999999994      40.159999999999982
   201   1       6.274999999999995      37.649999999999991       43.92499999999999
   202   1       6.274999999999995      38.904999999999994       42.66999999999998
   203   1       6.274999999999995      40.159999999999982      26.354999999999993
   204   1       5.019999999999996      41.414999999999992      28.864999999999988
   205   1       6.274999999999995      40.159999999999982      28.864999999999988
   206   1       6.274999999999995      41.414999999999992      27.609999999999992
   207   1       5.019999999999996      40.159999999999982       30.11999999999999
   208   1       5.019999999999996      41.414999999999992      31.374999999999993
   209   1       6.274999999999995      40.159999999999982      31.374999999999993
   210   1       6.274999999999995      41.414999999999992       30.11999999999999
   211   1       5.019999999999996      40.159999999999982      32.629999999999995
   212   1       5.019999999999996      41.414999999999992      33.884999999999998
   213   1       6.274999999999995      40.159999999999982      33.884999999999998
   214   1       6.274999999999995      41.414999999999992      32.629999999999995
   215   1       5.019999999999996      40.159999999999982      35.139999999999993
   216   1       5.019999999999996      41.414999999999992      36.394999999999996
   217   1       6.274999999999995      40.159999999999982      36.394999999999996
   218   1       6.274999999999995      41.414999999999992      35.139999999999993
   219   1       5.019999999999996      40.159999999999982      37.649999999999991
   220   1       5.019999999999996      41.414999999999992      38.904999999999994
   221   1       6.274999999999995      40.159999999999982      38.904999999999994
   222   1       6.274999999999995      41.414999999999992      37.649999999999991
   223   1       5.019999999999996      40.159999999999982      40.159999999999982
   224   1       5.019999999999996      41.414999999999992      41.414999999999992
   225   1       6.274999999999995      40.159999999999982      41.414999999999992
   226   1       6.274999999999995      41.414999999999992      40.159999999999982
   227   1       6.274999999999995      40.159999999999982       43.92499999999999
   228   1       6.274999999999995      41.414999999999992       42.66999999999998
   229   1       6.274999999999995       42.66999999999998      26.354999999999993
   230   1       6.274999999999995       42.66999999999998      28.864999999999988
   231   1       6.274999999999995       43.92499999999999      27.609999999999992
   232   1       6.274999999999995       42.66999999999998      31.374999999999993
   233   1       6.274999999999995       43.92499999999999       30.11999999999999
   234   1       6.274999999999995       42.66999999999998      33.884999999999998
   235   1       6.274999999999995       43.92499999999999      32.629999999999995
   236   1       6.274999999999995       42.66999999999998      36.394999999999996
   237   1       6.274999999999995       43.92499999999999      35.139999999999993
   238   1       6.274999999999995       42.66999999999998      38.904999999999994
   239   1       6.274999999999995       43.92499999999999      37.649999999999991
   240   1       6.274999999999995       42.66999999999998      41.414999999999992
   241   1       6.274999999999995       43.92499999999999      40.159999999999982
   242   1       6.274999999999995       42.66999999999998       43.92499999999999
   243   1       6.274999999999995       43.92499999999999       42.66999999999998
   244   1       8.784999999999993      23.844999999999992      25.099999999999994
   245   1       8.784999999999993      23.844999999999992      27.609999999999992
   246   1       8.784999999999993      23.844999999999992       30.11999999999999
   247   1       8.784999999999993      23.844999999999992      32.629999999999995
   248   1       8.784999999999993      23.844999999999992      35.139999999999993
   249   1       8.784999999999993      23.844999999999992      37.649999999999991
   250   1       8.784999999999993      23.844999999999992      40.159999999999982
   251   1       8.784999999999993      23.844999999999992       42.66999999999998
   252   1       8.784999999999993      23.844999999999992      45.179999999999993
   253   1       8.784999999999993      25.099999999999994      23.844999999999992
   254   1       7.529999999999994      25.099999999999994      25.099999999999994
   255   1       7.529999999999994      26.354999999999993      26.354999999999993
   256   1       8.784999999999993      25.099999999999994      26.354999999999993
   257   1       8.784999999999993      26.354999999999993      25.099999999999994
   258   1       7.529999999999994      25.099999999999994      27.609999999999992
   259   1       7.529999999999994      26.354999999999993      28.864999999999988
   260   1       8.784999999999993      25.099999999999994      28.864999999999988
   261   1       8.784999999999993      26.354999999999993      27.609999999999992
   262   1       7.529999999999994      25.099999999999994       30.11999999999999
   263   1       7.529999999999994      26.354999999999993      31.374999999999993
   264   1       8.784999999999993      25.099999999999994      31.374999999999993
   265   1       8.784999999999993      26.354999999999993       30.11999999999999
   266   1       7.529999999999994      25.099999999999994      32.629999999999995
   267   1       7.529999999999994      26.354999999999993      33.884999999999998
   268   1       8.784999999999993      25.099999999999994      33.884999999999998
   269   1       8.784999999999993      26.354999999999993      32.629999999999995
   270   1       7.529999999999994      25.099999999999994      35.139999999999993
   271   1       7.529999999999994      26.354999999999993      36.394999999999996
   272   1       8.784999999999993      25.099999999999994      36.394999999999996
   273   1       8.784999999999993      26.354999999999993      35.139999999999993
   274   1       7.529999999999994      25.099999999999994      37.649999999999991
   275   1       7.529999999999994      26.354999999999993      38.904999999999994
   276   1       8.784999999999993      25.099999999999994      38.904999999999994
   277   1       8.784999999999993      26.354999999999993      37.649999999999991
   278   1       7.529999999999994      25.099999999999994      40.159999999999982
   279   1       7.529999999999994      26.354999999999993      41.414999999999992
   280   1       8.784999999999993      25.099999999999994      41.414999999999992
   281   1       8.784999999999993      26.354999999999993      40.159999999999982
   282   1       7.529999999999994      25.099999999999994       42.66999999999998
   283   1       7.529999999999994      26.354999999999993       43.92499999999999
   284   1       8.784999999999993      25.099999999999994       43.92499999999999
   285   1       8.784999999999993      26.354999999999993       42.66999999999998
   286   1       7.529999999999994      25.099999999999994      45.179999999999993
   287   1       8.784999999999993      25.099999999999994      46.434999999999995
   288   1       8.784999999999993      26.354999999999993      45.179999999999993
   289   1       8.784999999999993      27.609999999999992      23.844999999999992
   290   1       7.529999999999994      27.609999999999992      25.099999999999994
   291   1       7.529999999999994      28.864999999999988      26.354999999999993
   292   1       8.784999999999993      27.609999999999992      26.354999999999993
   293   1       8.784999999999993      28.864999999999988      25.099999999999994
   294   1       7.529999999999994      27.609999999999992      27.609999999999992
   295   1       7.529999999999994      28.864999999999988      28.864999999999988
   296   1       8.784999999999993      27.609999999999992      28.864999999999988
   297   1       8.784999999999993      28.864999999999988      27.609999999999992
   298   1       7.529999999999994      27.609999999999992       30.11999999999999
   299   1       7.529999999999994      28.864999999999988      31.374999999999993
   300   1       8.784999999999993      27.609999999999992      31.374999999999993
   301   1       8.784999999999993      28.864999999999988       30.11999999999999
   302   1       7.529999999999994      27.609999999999992      32.629999999999995
   303   1       7.529999999999994      28.864999999999988      33.884999999999998
   304   1       8.784999999999993      27.609999999999992      33.884999999999998
   305   1       8.784999999999993      28.864999999999988      32.629999999999995
   306   1       7.529999999999994      27.609999999999992      35.139999999999993
   307   1       7.529999999999994      28.864999999999988      36.394999999999996
   308   1       8.784999999999993      27.609999999999992      36.394999999999996
   309   1       8.784999999999993      28.864999999999988      35.139999999999993
   310   1       7.529999999999994      27.609999999999992      37.649999999999991
   311   1       7.529999999999994      28.864999999999988      38.904999999999994
   312   1       8.784999999999993      27.609999999999992      38.904999999999994
   313   1       8.784999999999993      28.864999999999988      37.649999999999991
   314   1       7.529999999999994      27.609999999999992      40.159999999999982
   315   1       7.529999999999994      28.864999999999988      41.414999999999992
   316   1       8.784999999999993      27.609999999999992      41.414999999999992
   317   1       8.784999999999993      28.864999999999988      40.159999999999982
   318   1       7.529999999999994      27.609999999999992       42.66999999999998
   319   1       7.529999999999994      28.864999999999988       43.92499999999999
   320   1       8.784999999999993      27.609999999999992       43.92499999999999
   321   1       8.784999999999993      28.864999999999988       42.66999999999998
   322   1       7.529999999999994      27.609999999999992      45.179999999999993
   323   1       8.784999999999993      27.609999999999992      46.434999999999995
   324   1       8.784999999999993      28.864999999999988      45.179999999999993
   325   1       8.784999999999993       30.11999999999999      23.844999999999992
   326   1       7.529999999999994       30.11999999999999      25.099999999999994
   327   1       7.529999999999994      31.374999999999993      26.354999999999993
   328   1       8.784999999999993       30.11999999999999      26.354999999999993
   329   1       8.784999999999993      31.374999999999993      25.099999999999994
   330   1       7.529999999999994       30.11999999999999      27.609999999999992
   331   1       7.529999999999994      31.374999999999993      28.864999999999988
   332   1       8.784999999999993       30.11999999999999      28.864999999999988
   333   1       8.784999999999993      31.374999999999993      27.609999999999992
   334   1       7.529999999999994       30.11999999999999       30.11999999999999
   335   1       7.529999999999994      31.374999999999993      31.374999999999993
   336   1       8.784999999999993       30.11999999999999      31.374999999999993
   337   1       8.784999999999993      31.374999999999993       30.11999999999999
   338   1       7.529999999999994       30.11999999999999      32.629999999999995
   339   1       7.529999999999994      31.374999999999993      33.884999999999998
   340   1       8.784999999999993       30.11999999999999      33.884999999999998
   341   1       8.784999999999993      31.374999999999993      32.629999999999995
   342   1       7.529999999999994       30.11999999999999      35.139999999999993
   343   1       7.529999999999994      31.374999999999993      36.394999999999996
   344   1       8.784999999999993       30.11999999999999      36.394999999999996
   345   1       8.784999999999993      31.374999999999993      35.139999999999993
   346   1       7.529999999999994       30.11999999999999      37.649999999999991
   347   1       7.529999999999994      31.374999999999993      38.904999999999994
   348   1       8.784999999999993       30.11999999999999      38.904999999999994
   349   1       8.784999999999993      31.374999999999993      37.649999999999991
   350   1       7.529999999999994       30.11999999999999      40.159999999999982
   351   1       7.529999999999994      31.374999999999993      41.414999999999992
   352   1       8.784999999999993       30.11999999999999      41.414999999999992
   353   1       8.784999999999993      31.374999999999993      40.159999999999982
   354   1       7.529999999999994       30.11999999999999       42.66999999999998
   355   1       7.529999999999994      31.374999999999993       43.92499999999999
   356   1       8.784999999999993       30.11999999999999       43.92499999999999
   357   1       8.784999999999993      31.374999999999993       42.66999999999998
   358   1       7.529999999999994       30.11999999999999      45.179999999999993