model_files/Co/Co_3000/Co_553/data.Co_553_hcp_3103 (written by ASE) 

3103 	 atoms 
1  atom types
0.0                      37  xlo xhi
0.0                      37  ylo yhi
0.0                      37  zlo zhi


Atoms 

     1   1                       0      16.315000000000001      16.315000000000001
     2   1      1.2550000000000026      15.060000000000002      16.315000000000001
     3   1      1.2550000000000026      16.315000000000001      15.060000000000002
     4   1                       0      16.315000000000001      18.824999999999999
     5   1      1.2550000000000026      15.060000000000002      18.824999999999999
     6   1      1.2550000000000026      16.315000000000001                   17.57
     7   1      1.2550000000000026      16.315000000000001      20.080000000000002
     8   1                       0      18.824999999999999      16.315000000000001
     9   1      1.2550000000000026                   17.57      16.315000000000001
    10   1      1.2550000000000026      18.824999999999999      15.060000000000002
    11   1                       0                   17.57                   17.57
    12   1                       0      18.824999999999999      18.824999999999999
    13   1      1.2550000000000026                   17.57      18.824999999999999
    14   1      1.2550000000000026      18.824999999999999                   17.57
    15   1      1.2550000000000026      18.824999999999999      20.080000000000002
    16   1      1.2550000000000026      20.080000000000002      16.315000000000001
    17   1      1.2550000000000026      20.080000000000002      18.824999999999999
    18   1      2.5100000000000016      13.805000000000001      16.315000000000001
    19   1      3.7650000000000006      12.550000000000001      16.315000000000001
    20   1      3.7650000000000006      13.805000000000001      15.060000000000002
    21   1      2.5100000000000016      13.805000000000001      18.824999999999999
    22   1      3.7650000000000006      12.550000000000001      18.824999999999999
    23   1      3.7650000000000006      13.805000000000001                   17.57
    24   1      3.7650000000000006      13.805000000000001      20.080000000000002
    25   1      2.5100000000000016      16.315000000000001      13.805000000000001
    26   1      3.7650000000000006      15.060000000000002      13.805000000000001
    27   1      3.7650000000000006      16.315000000000001      12.550000000000001
    28   1      2.5100000000000016      15.060000000000002      15.060000000000002
    29   1      2.5100000000000016      16.315000000000001      16.315000000000001
    30   1      3.7650000000000006      15.060000000000002      16.315000000000001
    31   1      3.7650000000000006      16.315000000000001      15.060000000000002
    32   1      2.5100000000000016      15.060000000000002                   17.57
    33   1      2.5100000000000016      16.315000000000001      18.824999999999999
    34   1      3.7650000000000006      15.060000000000002      18.824999999999999
    35   1      3.7650000000000006      16.315000000000001                   17.57
    36   1      2.5100000000000016      15.060000000000002      20.080000000000002
    37   1      2.5100000000000016      16.315000000000001      21.334999999999997
    38   1      3.7650000000000006      15.060000000000002      21.334999999999997
    39   1      3.7650000000000006      16.315000000000001      20.080000000000002
    40   1      3.7650000000000006      16.315000000000001                   22.59
    41   1      2.5100000000000016      18.824999999999999      13.805000000000001
    42   1      3.7650000000000006                   17.57      13.805000000000001
    43   1      3.7650000000000006      18.824999999999999      12.550000000000001
    44   1      2.5100000000000016                   17.57      15.060000000000002
    45   1      2.5100000000000016      18.824999999999999      16.315000000000001
    46   1      3.7650000000000006                   17.57      16.315000000000001
    47   1      3.7650000000000006      18.824999999999999      15.060000000000002
    48   1      2.5100000000000016                   17.57                   17.57
    49   1      2.5100000000000016      18.824999999999999      18.824999999999999
    50   1      3.7650000000000006                   17.57      18.824999999999999
    51   1      3.7650000000000006      18.824999999999999                   17.57
    52   1      2.5100000000000016                   17.57      20.080000000000002
    53   1      2.5100000000000016      18.824999999999999      21.334999999999997
    54   1      3.7650000000000006                   17.57      21.334999999999997
    55   1      3.7650000000000006      18.824999999999999      20.080000000000002
    56   1      3.7650000000000006      18.824999999999999                   22.59
    57   1      3.7650000000000006      20.080000000000002      13.805000000000001
    58   1      2.5100000000000016      20.080000000000002      15.060000000000002
    59   1      2.5100000000000016      21.334999999999997      16.315000000000001
    60   1      3.7650000000000006      20.080000000000002      16.315000000000001
    61   1      3.7650000000000006      21.334999999999997      15.060000000000002
    62   1      2.5100000000000016      20.080000000000002                   17.57
    63   1      2.5100000000000016      21.334999999999997      18.824999999999999
    64   1      3.7650000000000006      20.080000000000002      18.824999999999999
    65   1      3.7650000000000006      21.334999999999997                   17.57
    66   1      2.5100000000000016      20.080000000000002      20.080000000000002
    67   1      3.7650000000000006      20.080000000000002      21.334999999999997
    68   1      3.7650000000000006      21.334999999999997      20.080000000000002
    69   1      3.7650000000000006                   22.59      16.315000000000001
    70   1      3.7650000000000006                   22.59      18.824999999999999
    71   1      5.0200000000000022      11.295000000000002      16.315000000000001
    72   1       6.275000000000003      10.040000000000003      16.315000000000001
    73   1       6.275000000000003      11.295000000000002      15.060000000000002
    74   1      5.0200000000000022      11.295000000000002      18.824999999999999
    75   1       6.275000000000003      10.040000000000003      18.824999999999999
    76   1       6.275000000000003      11.295000000000002                   17.57
    77   1       6.275000000000003      11.295000000000002      20.080000000000002
    78   1      5.0200000000000022      13.805000000000001      13.805000000000001
    79   1       6.275000000000003      12.550000000000001      13.805000000000001
    80   1       6.275000000000003      13.805000000000001      12.550000000000001
    81   1      5.0200000000000022      12.550000000000001      15.060000000000002
    82   1      5.0200000000000022      13.805000000000001      16.315000000000001
    83   1       6.275000000000003      12.550000000000001      16.315000000000001
    84   1       6.275000000000003      13.805000000000001      15.060000000000002
    85   1      5.0200000000000022      12.550000000000001                   17.57
    86   1      5.0200000000000022      13.805000000000001      18.824999999999999
    87   1       6.275000000000003      12.550000000000001      18.824999999999999
    88   1       6.275000000000003      13.805000000000001                   17.57
    89   1      5.0200000000000022      12.550000000000001      20.080000000000002
    90   1      5.0200000000000022      13.805000000000001      21.334999999999997
    91   1       6.275000000000003      12.550000000000001      21.334999999999997
    92   1       6.275000000000003      13.805000000000001      20.080000000000002
    93   1       6.275000000000003      13.805000000000001                   22.59
    94   1      5.0200000000000022      16.315000000000001      11.295000000000002
    95   1       6.275000000000003      15.060000000000002      11.295000000000002
    96   1       6.275000000000003      16.315000000000001      10.040000000000003
    97   1      5.0200000000000022      15.060000000000002      12.550000000000001
    98   1      5.0200000000000022      16.315000000000001      13.805000000000001
    99   1       6.275000000000003      15.060000000000002      13.805000000000001
   100   1       6.275000000000003      16.315000000000001      12.550000000000001
   101   1      5.0200000000000022      15.060000000000002      15.060000000000002
   102   1      5.0200000000000022      16.315000000000001      16.315000000000001
   103   1       6.275000000000003      15.060000000000002      16.315000000000001
   104   1       6.275000000000003      16.315000000000001      15.060000000000002
   105   1      5.0200000000000022      15.060000000000002                   17.57
   106   1      5.0200000000000022      16.315000000000001      18.824999999999999
   107   1       6.275000000000003      15.060000000000002      18.824999999999999
   108   1       6.275000000000003      16.315000000000001                   17.57
   109   1      5.0200000000000022      15.060000000000002      20.080000000000002
   110   1      5.0200000000000022      16.315000000000001      21.334999999999997
   111   1       6.275000000000003      15.060000000000002      21.334999999999997
   112   1       6.275000000000003      16.315000000000001      20.080000000000002
   113   1      5.0200000000000022      15.060000000000002                   22.59
   114   1      5.0200000000000022      16.315000000000001      23.845000000000002
   115   1       6.275000000000003      15.060000000000002      23.845000000000002
   116   1       6.275000000000003      16.315000000000001                   22.59
   117   1       6.275000000000003      16.315000000000001      25.100000000000001
   118   1      5.0200000000000022      18.824999999999999      11.295000000000002
   119   1       6.275000000000003                   17.57      11.295000000000002
   120   1       6.275000000000003      18.824999999999999      10.040000000000003
   121   1      5.0200000000000022                   17.57      12.550000000000001
   122   1      5.0200000000000022      18.824999999999999      13.805000000000001
   123   1       6.275000000000003                   17.57      13.805000000000001
   124   1       6.275000000000003      18.824999999999999      12.550000000000001
   125   1      5.0200000000000022                   17.57      15.060000000000002
   126   1      5.0200000000000022      18.824999999999999      16.315000000000001
   127   1       6.275000000000003                   17.57      16.315000000000001
   128   1       6.275000000000003      18.824999999999999      15.060000000000002
   129   1      5.0200000000000022                   17.57                   17.57
   130   1      5.0200000000000022      18.824999999999999      18.824999999999999
   131   1       6.275000000000003                   17.57      18.824999999999999
   132   1       6.275000000000003      18.824999999999999                   17.57
   133   1      5.0200000000000022                   17.57      20.080000000000002
   134   1      5.0200000000000022      18.824999999999999      21.334999999999997
   135   1       6.275000000000003                   17.57      21.334999999999997
   136   1       6.275000000000003      18.824999999999999      20.080000000000002
   137   1      5.0200000000000022                   17.57                   22.59
   138   1      5.0200000000000022      18.824999999999999      23.845000000000002
   139   1       6.275000000000003                   17.57      23.845000000000002
   140   1       6.275000000000003      18.824999999999999                   22.59
   141   1       6.275000000000003      18.824999999999999      25.100000000000001
   142   1       6.275000000000003      20.080000000000002      11.295000000000002
   143   1      5.0200000000000022      20.080000000000002      12.550000000000001
   144   1      5.0200000000000022      21.334999999999997      13.805000000000001
   145   1       6.275000000000003      20.080000000000002      13.805000000000001
   146   1       6.275000000000003      21.334999999999997      12.550000000000001
   147   1      5.0200000000000022      20.080000000000002      15.060000000000002
   148   1      5.0200000000000022      21.334999999999997      16.315000000000001
   149   1       6.275000000000003      20.080000000000002      16.315000000000001
   150   1       6.275000000000003      21.334999999999997      15.060000000000002
   151   1      5.0200000000000022      20.080000000000002                   17.57
   152   1      5.0200000000000022      21.334999999999997      18.824999999999999
   153   1       6.275000000000003      20.080000000000002      18.824999999999999
   154   1       6.275000000000003      21.334999999999997                   17.57
   155   1      5.0200000000000022      20.080000000000002      20.080000000000002
   156   1      5.0200000000000022      21.334999999999997      21.334999999999997
   157   1       6.275000000000003      20.080000000000002      21.334999999999997
   158   1       6.275000000000003      21.334999999999997      20.080000000000002
   159   1      5.0200000000000022      20.080000000000002                   22.59
   160   1       6.275000000000003      20.080000000000002      23.845000000000002
   161   1       6.275000000000003      21.334999999999997                   22.59
   162   1       6.275000000000003                   22.59      13.805000000000001
   163   1      5.0200000000000022                   22.59      15.060000000000002
   164   1      5.0200000000000022      23.845000000000002      16.315000000000001
   165   1       6.275000000000003                   22.59      16.315000000000001
   166   1       6.275000000000003      23.845000000000002      15.060000000000002
   167   1      5.0200000000000022                   22.59                   17.57
   168   1      5.0200000000000022      23.845000000000002      18.824999999999999
   169   1       6.275000000000003                   22.59      18.824999999999999
   170   1       6.275000000000003      23.845000000000002                   17.57
   171   1      5.0200000000000022                   22.59      20.080000000000002
   172   1       6.275000000000003                   22.59      21.334999999999997
   173   1       6.275000000000003      23.845000000000002      20.080000000000002
   174   1       6.275000000000003      25.100000000000001      16.315000000000001
   175   1       6.275000000000003      25.100000000000001      18.824999999999999
   176   1      7.5300000000000011      8.7850000000000001      16.315000000000001
   177   1      8.7850000000000001      7.5300000000000011      16.315000000000001
   178   1      8.7850000000000001      8.7850000000000001      15.060000000000002
   179   1      7.5300000000000011      8.7850000000000001      18.824999999999999
   180   1      8.7850000000000001      7.5300000000000011      18.824999999999999
   181   1      8.7850000000000001      8.7850000000000001                   17.57
   182   1      8.7850000000000001      8.7850000000000001      20.080000000000002
   183   1      7.5300000000000011      11.295000000000002      13.805000000000001
   184   1      8.7850000000000001      10.040000000000003      13.805000000000001
   185   1      8.7850000000000001      11.295000000000002      12.550000000000001
   186   1      7.5300000000000011      10.040000000000003      15.060000000000002
   187   1      7.5300000000000011      11.295000000000002      16.315000000000001
   188   1      8.7850000000000001      10.040000000000003      16.315000000000001
   189   1      8.7850000000000001      11.295000000000002      15.060000000000002
   190   1      7.5300000000000011      10.040000000000003                   17.57
   191   1      7.5300000000000011      11.295000000000002      18.824999999999999
   192   1      8.7850000000000001      10.040000000000003      18.824999999999999
   193   1      8.7850000000000001      11.295000000000002                   17.57
   194   1      7.5300000000000011      10.040000000000003      20.080000000000002
   195   1      7.5300000000000011      11.295000000000002      21.334999999999997
   196   1      8.7850000000000001      10.040000000000003      21.334999999999997
   197   1      8.7850000000000001      11.295000000000002      20.080000000000002
   198   1      8.7850000000000001      11.295000000000002                   22.59
   199   1      7.5300000000000011      13.805000000000001      11.295000000000002
   200   1      8.7850000000000001      12.550000000000001      11.295000000000002
   201   1      8.7850000000000001      13.805000000000001      10.040000000000003
   202   1      7.5300000000000011      12.550000000000001      12.550000000000001
   203   1      7.5300000000000011      13.805000000000001      13.805000000000001
   204   1      8.7850000000000001      12.550000000000001      13.805000000000001
   205   1      8.7850000000000001      13.805000000000001      12.550000000000001
   206   1      7.5300000000000011      12.550000000000001      15.060000000000002
   207   1      7.5300000000000011      13.805000000000001      16.315000000000001
   208   1      8.7850000000000001      12.550000000000001      16.315000000000001
   209   1      8.7850000000000001      13.805000000000001      15.060000000000002
   210   1      7.5300000000000011      12.550000000000001                   17.57
   211   1      7.5300000000000011      13.805000000000001      18.824999999999999
   212   1      8.7850000000000001      12.550000000000001      18.824999999999999
   213   1      8.7850000000000001      13.805000000000001                   17.57
   214   1      7.5300000000000011      12.550000000000001      20.080000000000002
   215   1      7.5300000000000011      13.805000000000001      21.334999999999997
   216   1      8.7850000000000001      12.550000000000001      21.334999999999997
   217   1      8.7850000000000001      13.805000000000001      20.080000000000002
   218   1      7.5300000000000011      12.550000000000001                   22.59
   219   1      7.5300000000000011      13.805000000000001      23.845000000000002
   220   1      8.7850000000000001      12.550000000000001      23.845000000000002
   221   1      8.7850000000000001      13.805000000000001                   22.59
   222   1      8.7850000000000001      13.805000000000001      25.100000000000001
   223   1      7.5300000000000011      16.315000000000001      8.7850000000000001
   224   1      8.7850000000000001      15.060000000000002      8.7850000000000001
   225   1      8.7850000000000001      16.315000000000001      7.5300000000000011
   226   1      7.5300000000000011      15.060000000000002      10.040000000000003
   227   1      7.5300000000000011      16.315000000000001      11.295000000000002
   228   1      8.7850000000000001      15.060000000000002      11.295000000000002
   229   1      8.7850000000000001      16.315000000000001      10.040000000000003
   230   1      7.5300000000000011      15.060000000000002      12.550000000000001
   231   1      7.5300000000000011      16.315000000000001      13.805000000000001
   232   1      8.7850000000000001      15.060000000000002      13.805000000000001
   233   1      8.7850000000000001      16.315000000000001      12.550000000000001
   234   1      7.5300000000000011      15.060000000000002      15.060000000000002
   235   1      7.5300000000000011      16.315000000000001      16.315000000000001
   236   1      8.7850000000000001      15.060000000000002      16.315000000000001
   237   1      8.7850000000000001      16.315000000000001      15.060000000000002
   238   1      7.5300000000000011      15.060000000000002                   17.57
   239   1      7.5300000000000011      16.315000000000001      18.824999999999999
   240   1      8.7850000000000001      15.060000000000002      18.824999999999999
   241   1      8.7850000000000001      16.315000000000001                   17.57
   242   1      7.5300000000000011      15.060000000000002      20.080000000000002
   243   1      7.5300000000000011      16.315000000000001      21.334999999999997
   244   1      8.7850000000000001      15.060000000000002      21.334999999999997
   245   1      8.7850000000000001      16.315000000000001      20.080000000000002
   246   1      7.5300000000000011      15.060000000000002                   22.59
   247   1      7.5300000000000011      16.315000000000001      23.845000000000002
   248   1      8.7850000000000001      15.060000000000002      23.845000000000002
   249   1      8.7850000000000001      16.315000000000001                   22.59
   250   1      7.5300000000000011      15.060000000000002      25.100000000000001
   251   1      7.5300000000000011      16.315000000000001                  26.355
   252   1      8.7850000000000001      15.060000000000002                  26.355
   253   1      8.7850000000000001      16.315000000000001      25.100000000000001
   254   1      8.7850000000000001      16.315000000000001      27.610000000000003
   255   1      7.5300000000000011      18.824999999999999      8.7850000000000001
   256   1      8.7850000000000001                   17.57      8.7850000000000001
   257   1      8.7850000000000001      18.824999999999999      7.5300000000000011
   258   1      7.5300000000000011                   17.57      10.040000000000003
   259   1      7.5300000000000011      18.824999999999999      11.295000000000002
   260   1      8.7850000000000001                   17.57      11.295000000000002
   261   1      8.7850000000000001      18.824999999999999      10.040000000000003
   262   1      7.5300000000000011                   17.57      12.550000000000001
   263   1      7.5300000000000011      18.824999999999999      13.805000000000001
   264   1      8.7850000000000001                   17.57      13.805000000000001
   265   1      8.7850000000000001      18.824999999999999      12.550000000000001
   266   1      7.5300000000000011                   17.57      15.060000000000002
   267   1      7.5300000000000011      18.824999999999999      16.315000000000001
   268   1      8.7850000000000001                   17.57      16.315000000000001
   269   1      8.7850000000000001      18.824999999999999      15.060000000000002
   270   1      7.5300000000000011                   17.57                   17.57
   271   1      7.5300000000000011      18.824999999999999      18.824999999999999
   272   1      8.7850000000000001                   17.57      18.824999999999999
   273   1      8.7850000000000001      18.824999999999999                   17.57
   274   1      7.5300000000000011                   17.57      20.080000000000002
   275   1      7.5300000000000011      18.824999999999999      21.334999999999997
   276   1      8.7850000000000001                   17.57      21.334999999999997
   277   1      8.7850000000000001      18.824999999999999      20.080000000000002
   278   1      7.5300000000000011                   17.57                   22.59
   279   1      7.5300000000000011      18.824999999999999      23.845000000000002
   280   1      8.7850000000000001                   17.57      23.845000000000002
   281   1      8.7850000000000001      18.824999999999999                   22.59
   282   1      7.5300000000000011                   17.57      25.100000000000001
   283   1      7.5300000000000011      18.824999999999999                  26.355
   284   1      8.7850000000000001                   17.57                  26.355
   285   1      8.7850000000000001      18.824999999999999      25.100000000000001
   286   1      8.7850000000000001      18.824999999999999      27.610000000000003
   287   1      8.7850000000000001      20.080000000000002      8.7850000000000001
   288   1      7.5300000000000011      20.080000000000002      10.040000000000003
   289   1      7.5300000000000011      21.334999999999997      11.295000000000002
   290   1      8.7850000000000001      20.080000000000002      11.295000000000002
   291   1      8.7850000000000001      21.334999999999997      10.040000000000003
   292   1      7.5300000000000011      20.080000000000002      12.550000000000001
   293   1      7.5300000000000011      21.334999999999997      13.805000000000001
   294   1      8.7850000000000001      20.080000000000002      13.805000000000001
   295   1      8.7850000000000001      21.334999999999997      12.550000000000001
   296   1      7.5300000000000011      20.080000000000002      15.060000000000002
   297   1      7.5300000000000011      21.334999999999997      16.315000000000001
   298   1      8.7850000000000001      20.080000000000002      16.315000000000001
   299   1      8.7850000000000001      21.334999999999997      15.060000000000002
   300   1      7.5300000000000011      20.080000000000002                   17.57
   301   1      7.5300000000000011      21.334999999999997      18.824999999999999
   302   1      8.7850000000000001      20.080000000000002      18.824999999999999
   303   1      8.7850000000000001      21.334999999999997                   17.57
   304   1      7.5300000000000011      20.080000000000002      20.080000000000002
   305   1      7.5300000000000011      21.334999999999997      21.334999999999997
   306   1      8.7850000000000001      20.080000000000002      21.334999999999997
   307   1      8.7850000000000001      21.334999999999997      20.080000000000002
   308   1      7.5300000000000011      20.080000000000002                   22.59
   309   1      7.5300000000000011      21.334999999999997      23.845000000000002
   310   1      8.7850000000000001      20.080000000000002      23.845000000000002
   311   1      8.7850000000000001      21.334999999999997                   22.59
   312   1      7.5300000000000011      20.080000000000002      25.100000000000001
   313   1      8.7850000000000001      20.080000000000002                  26.355
   314   1      8.7850000000000001      21.334999999999997      25.100000000000001
   315   1      8.7850000000000001                   22.59      11.295000000000002
   316   1      7.5300000000000011                   22.59      12.550000000000001
   317   1      7.5300000000000011      23.845000000000002      13.805000000000001
   318   1      8.7850000000000001                   22.59      13.805000000000001
   319   1      8.7850000000000001      23.845000000000002      12.550000000000001
   320   1      7.5300000000000011                   22.59      15.060000000000002
   321   1      7.5300000000000011      23.845000000000002      16.315000000000001
   322   1      8.7850000000000001                   22.59      16.315000000000001
   323   1      8.7850000000000001      23.845000000000002      15.060000000000002
   324   1      7.5300000000000011                   22.59                   17.57
   325   1      7.5300000000000011      23.845000000000002      18.824999999999999
   326   1      8.7850000000000001                   22.59      18.824999999999999
   327   1      8.7850000000000001      23.845000000000002                   17.57
   328   1      7.5300000000000011                   22.59      20.080000000000002
   329   1      7.5300000000000011      23.845000000000002      21.334999999999997
   330   1      8.7850000000000001                   22.59      21.334999999999997
   331   1      8.7850000000000001      23.845000000000002      20.080000000000002
   332   1      7.5300000000000011                   22.59                   22.59
   333   1      8.7850000000000001                   22.59      23.845000000000002
   334   1      8.7850000000000001      23.845000000000002                   22.59
   335   1      8.7850000000000001      25.100000000000001      13.805000000000001
   336   1      7.5300000000000011      25.100000000000001      15.060000000000002
   337   1      7.5300000000000011                  26.355      16.315000000000001
   338   1      8.7850000000000001      25.100000000000001      16.315000000000001
   339   1      8.7850000000000001                  26.355      15.060000000000002
   340   1      7.5300000000000011      25.100000000000001                   17.57
   341   1      7.5300000000000011                  26.355      18.824999999999999
   342   1      8.7850000000000001      25.100000000000001      18.824999999999999
   343   1      8.7850000000000001                  26.355                   17.57
   344   1      7.5300000000000011      25.100000000000001      20.080000000000002
   345   1      8.7850000000000001      25.100000000000001      21.334999999999997
   346   1      8.7850000000000001                  26.355      20.080000000000002
   347   1      8.7850000000000001      27.610000000000003      16.315000000000001
   348   1      8.7850000000000001      27.610000000000003      18.824999999999999
   349   1      10.040000000000003       6.275000000000003      16.315000000000001
   350   1      11.295000000000002      5.0200000000000022      16.315000000000001
   351   1      11.295000000000002       6.275000000000003      15.060000000000002
   352   1      10.040000000000003       6.275000000000003      18.824999999999999
   353   1      11.295000000000002      5.0200000000000022      18.824999999999999
   354   1      11.295000000000002       6.275000000000003                   17.57
   355   1      11.295000000000002       6.275000000000003      20.080000000000002
   356   1      10.040000000000003      8.7850000000000001      13.805000000000001
   357   1      11.295000000000002      7.5300000000000011      13.805000000000001
   358   1      11.295000000000002      8.7850000000000001      12.550000000000001