model_files/Ni/Ni_30000/Ni_551/data.Ni_551_fcc_30369 (written by ASE) 

30369 	 atoms 
1  atom types
0.0                     112  xlo xhi
0.0                     112  ylo yhi
0.0                     112  zlo zhi


Atoms 

     1   1      1.7599999999999909      54.559999999999981      56.319999999999993
     2   1      1.7599999999999909      56.319999999999993      54.559999999999981
     3   1      111.99999999999999      56.319999999999993      56.319999999999993
     4   1      1.7599999999999909      56.319999999999993      58.079999999999984
     5   1      1.7599999999999909      58.079999999999984      56.319999999999993
     6   1       5.279999999999986      51.039999999999985      56.319999999999993
     7   1      3.5199999999999885      54.559999999999981      54.559999999999981
     8   1       5.279999999999986      52.799999999999983      54.559999999999981
     9   1       5.279999999999986      54.559999999999981      52.799999999999983
    10   1      3.5199999999999885      52.799999999999983      56.319999999999993
    11   1      3.5199999999999885      54.559999999999981      58.079999999999984
    12   1       5.279999999999986      52.799999999999983      58.079999999999984
    13   1       5.279999999999986      54.559999999999981      56.319999999999993
    14   1       5.279999999999986      54.559999999999981      59.839999999999982
    15   1       5.279999999999986      56.319999999999993      51.039999999999985
    16   1      3.5199999999999885      56.319999999999993      52.799999999999983
    17   1      3.5199999999999885      58.079999999999984      54.559999999999981
    18   1       5.279999999999986      56.319999999999993      54.559999999999981
    19   1       5.279999999999986      58.079999999999984      52.799999999999983
    20   1      3.5199999999999885      56.319999999999993      56.319999999999993
    21   1      3.5199999999999885      58.079999999999984      58.079999999999984
    22   1       5.279999999999986      56.319999999999993      58.079999999999984
    23   1       5.279999999999986      58.079999999999984      56.319999999999993
    24   1      3.5199999999999885      56.319999999999993      59.839999999999982
    25   1       5.279999999999986      56.319999999999993      61.599999999999994
    26   1       5.279999999999986      58.079999999999984      59.839999999999982
    27   1       5.279999999999986      59.839999999999982      54.559999999999981
    28   1      3.5199999999999885      59.839999999999982      56.319999999999993
    29   1       5.279999999999986      59.839999999999982      58.079999999999984
    30   1       5.279999999999986      61.599999999999994      56.319999999999993
    31   1      8.7999999999999883      47.519999999999982      56.319999999999993
    32   1      7.0399999999999912      51.039999999999985      51.039999999999985
    33   1      8.7999999999999883       49.27999999999998      51.039999999999985
    34   1      8.7999999999999883      51.039999999999985       49.27999999999998
    35   1      7.0399999999999912      51.039999999999985      54.559999999999981
    36   1      8.7999999999999883       49.27999999999998      54.559999999999981
    37   1      8.7999999999999883      51.039999999999985      52.799999999999983
    38   1      7.0399999999999912       49.27999999999998      56.319999999999993
    39   1      7.0399999999999912      51.039999999999985      58.079999999999984
    40   1      8.7999999999999883       49.27999999999998      58.079999999999984
    41   1      8.7999999999999883      51.039999999999985      56.319999999999993
    42   1      7.0399999999999912      51.039999999999985      61.599999999999994
    43   1      8.7999999999999883       49.27999999999998      61.599999999999994
    44   1      8.7999999999999883      51.039999999999985      59.839999999999982
    45   1      8.7999999999999883      51.039999999999985      63.359999999999978
    46   1      7.0399999999999912      54.559999999999981      51.039999999999985
    47   1      8.7999999999999883      52.799999999999983      51.039999999999985
    48   1      8.7999999999999883      54.559999999999981       49.27999999999998
    49   1      7.0399999999999912      52.799999999999983      52.799999999999983
    50   1      7.0399999999999912      54.559999999999981      54.559999999999981
    51   1      8.7999999999999883      52.799999999999983      54.559999999999981
    52   1      8.7999999999999883      54.559999999999981      52.799999999999983
    53   1      7.0399999999999912      52.799999999999983      56.319999999999993
    54   1      7.0399999999999912      54.559999999999981      58.079999999999984
    55   1      8.7999999999999883      52.799999999999983      58.079999999999984
    56   1      8.7999999999999883      54.559999999999981      56.319999999999993
    57   1      7.0399999999999912      52.799999999999983      59.839999999999982
    58   1      7.0399999999999912      54.559999999999981      61.599999999999994
    59   1      8.7999999999999883      52.799999999999983      61.599999999999994
    60   1      8.7999999999999883      54.559999999999981      59.839999999999982
    61   1      8.7999999999999883      54.559999999999981      63.359999999999978
    62   1      8.7999999999999883      56.319999999999993      47.519999999999982
    63   1      7.0399999999999912      56.319999999999993       49.27999999999998
    64   1      7.0399999999999912      58.079999999999984      51.039999999999985
    65   1      8.7999999999999883      56.319999999999993      51.039999999999985
    66   1      8.7999999999999883      58.079999999999984       49.27999999999998
    67   1      7.0399999999999912      56.319999999999993      52.799999999999983
    68   1      7.0399999999999912      58.079999999999984      54.559999999999981
    69   1      8.7999999999999883      56.319999999999993      54.559999999999981
    70   1      8.7999999999999883      58.079999999999984      52.799999999999983
    71   1      7.0399999999999912      56.319999999999993      56.319999999999993
    72   1      7.0399999999999912      58.079999999999984      58.079999999999984
    73   1      8.7999999999999883      56.319999999999993      58.079999999999984
    74   1      8.7999999999999883      58.079999999999984      56.319999999999993
    75   1      7.0399999999999912      56.319999999999993      59.839999999999982
    76   1      7.0399999999999912      58.079999999999984      61.599999999999994
    77   1      8.7999999999999883      56.319999999999993      61.599999999999994
    78   1      8.7999999999999883      58.079999999999984      59.839999999999982
    79   1      7.0399999999999912      56.319999999999993      63.359999999999978
    80   1      8.7999999999999883      56.319999999999993       65.11999999999999
    81   1      8.7999999999999883      58.079999999999984      63.359999999999978
    82   1      7.0399999999999912      61.599999999999994      51.039999999999985
    83   1      8.7999999999999883      59.839999999999982      51.039999999999985
    84   1      8.7999999999999883      61.599999999999994       49.27999999999998
    85   1      7.0399999999999912      59.839999999999982      52.799999999999983
    86   1      7.0399999999999912      61.599999999999994      54.559999999999981
    87   1      8.7999999999999883      59.839999999999982      54.559999999999981
    88   1      8.7999999999999883      61.599999999999994      52.799999999999983
    89   1      7.0399999999999912      59.839999999999982      56.319999999999993
    90   1      7.0399999999999912      61.599999999999994      58.079999999999984
    91   1      8.7999999999999883      59.839999999999982      58.079999999999984
    92   1      8.7999999999999883      61.599999999999994      56.319999999999993
    93   1      7.0399999999999912      59.839999999999982      59.839999999999982
    94   1      7.0399999999999912      61.599999999999994      61.599999999999994
    95   1      8.7999999999999883      59.839999999999982      61.599999999999994
    96   1      8.7999999999999883      61.599999999999994      59.839999999999982
    97   1      8.7999999999999883      61.599999999999994      63.359999999999978
    98   1      8.7999999999999883      63.359999999999978      51.039999999999985
    99   1      8.7999999999999883      63.359999999999978      54.559999999999981
   100   1      7.0399999999999912      63.359999999999978      56.319999999999993
   101   1      8.7999999999999883      63.359999999999978      58.079999999999984
   102   1      8.7999999999999883       65.11999999999999      56.319999999999993
   103   1      8.7999999999999883      63.359999999999978      61.599999999999994
   104   1      12.319999999999993      43.999999999999979      56.319999999999993
   105   1      10.559999999999986      47.519999999999982      47.519999999999982
   106   1      12.319999999999993      45.759999999999991      47.519999999999982
   107   1      12.319999999999993      47.519999999999982      45.759999999999991
   108   1      10.559999999999986      47.519999999999982      51.039999999999985
   109   1      12.319999999999993      45.759999999999991      51.039999999999985
   110   1      12.319999999999993      47.519999999999982       49.27999999999998
   111   1      10.559999999999986      47.519999999999982      54.559999999999981
   112   1      12.319999999999993      45.759999999999991      54.559999999999981
   113   1      12.319999999999993      47.519999999999982      52.799999999999983
   114   1      10.559999999999986      45.759999999999991      56.319999999999993
   115   1      10.559999999999986      47.519999999999982      58.079999999999984
   116   1      12.319999999999993      45.759999999999991      58.079999999999984
   117   1      12.319999999999993      47.519999999999982      56.319999999999993
   118   1      10.559999999999986      47.519999999999982      61.599999999999994
   119   1      12.319999999999993      45.759999999999991      61.599999999999994
   120   1      12.319999999999993      47.519999999999982      59.839999999999982
   121   1      10.559999999999986      47.519999999999982       65.11999999999999
   122   1      12.319999999999993      45.759999999999991       65.11999999999999
   123   1      12.319999999999993      47.519999999999982      63.359999999999978
   124   1      12.319999999999993      47.519999999999982      66.879999999999995
   125   1      10.559999999999986      51.039999999999985      47.519999999999982
   126   1      12.319999999999993       49.27999999999998      47.519999999999982
   127   1      12.319999999999993      51.039999999999985      45.759999999999991
   128   1      10.559999999999986       49.27999999999998       49.27999999999998
   129   1      10.559999999999986      51.039999999999985      51.039999999999985
   130   1      12.319999999999993       49.27999999999998      51.039999999999985
   131   1      12.319999999999993      51.039999999999985       49.27999999999998
   132   1      10.559999999999986       49.27999999999998      52.799999999999983
   133   1      10.559999999999986      51.039999999999985      54.559999999999981
   134   1      12.319999999999993       49.27999999999998      54.559999999999981
   135   1      12.319999999999993      51.039999999999985      52.799999999999983
   136   1      10.559999999999986       49.27999999999998      56.319999999999993
   137   1      10.559999999999986      51.039999999999985      58.079999999999984
   138   1      12.319999999999993       49.27999999999998      58.079999999999984
   139   1      12.319999999999993      51.039999999999985      56.319999999999993
   140   1      10.559999999999986       49.27999999999998      59.839999999999982
   141   1      10.559999999999986      51.039999999999985      61.599999999999994
   142   1      12.319999999999993       49.27999999999998      61.599999999999994
   143   1      12.319999999999993      51.039999999999985      59.839999999999982
   144   1      10.559999999999986       49.27999999999998      63.359999999999978
   145   1      10.559999999999986      51.039999999999985       65.11999999999999
   146   1      12.319999999999993       49.27999999999998       65.11999999999999
   147   1      12.319999999999993      51.039999999999985      63.359999999999978
   148   1      12.319999999999993      51.039999999999985      66.879999999999995
   149   1      10.559999999999986      54.559999999999981      47.519999999999982
   150   1      12.319999999999993      52.799999999999983      47.519999999999982
   151   1      12.319999999999993      54.559999999999981      45.759999999999991
   152   1      10.559999999999986      52.799999999999983       49.27999999999998
   153   1      10.559999999999986      54.559999999999981      51.039999999999985
   154   1      12.319999999999993      52.799999999999983      51.039999999999985
   155   1      12.319999999999993      54.559999999999981       49.27999999999998
   156   1      10.559999999999986      52.799999999999983      52.799999999999983
   157   1      10.559999999999986      54.559999999999981      54.559999999999981
   158   1      12.319999999999993      52.799999999999983      54.559999999999981
   159   1      12.319999999999993      54.559999999999981      52.799999999999983
   160   1      10.559999999999986      52.799999999999983      56.319999999999993
   161   1      10.559999999999986      54.559999999999981      58.079999999999984
   162   1      12.319999999999993      52.799999999999983      58.079999999999984
   163   1      12.319999999999993      54.559999999999981      56.319999999999993
   164   1      10.559999999999986      52.799999999999983      59.839999999999982
   165   1      10.559999999999986      54.559999999999981      61.599999999999994
   166   1      12.319999999999993      52.799999999999983      61.599999999999994
   167   1      12.319999999999993      54.559999999999981      59.839999999999982
   168   1      10.559999999999986      52.799999999999983      63.359999999999978
   169   1      10.559999999999986      54.559999999999981       65.11999999999999
   170   1      12.319999999999993      52.799999999999983       65.11999999999999
   171   1      12.319999999999993      54.559999999999981      63.359999999999978
   172   1      12.319999999999993      54.559999999999981      66.879999999999995
   173   1      12.319999999999993      56.319999999999993      43.999999999999979
   174   1      10.559999999999986      56.319999999999993      45.759999999999991
   175   1      10.559999999999986      58.079999999999984      47.519999999999982
   176   1      12.319999999999993      56.319999999999993      47.519999999999982
   177   1      12.319999999999993      58.079999999999984      45.759999999999991
   178   1      10.559999999999986      56.319999999999993       49.27999999999998
   179   1      10.559999999999986      58.079999999999984      51.039999999999985
   180   1      12.319999999999993      56.319999999999993      51.039999999999985
   181   1      12.319999999999993      58.079999999999984       49.27999999999998
   182   1      10.559999999999986      56.319999999999993      52.799999999999983
   183   1      10.559999999999986      58.079999999999984      54.559999999999981
   184   1      12.319999999999993      56.319999999999993      54.559999999999981
   185   1      12.319999999999993      58.079999999999984      52.799999999999983
   186   1      10.559999999999986      56.319999999999993      56.319999999999993
   187   1      10.559999999999986      58.079999999999984      58.079999999999984
   188   1      12.319999999999993      56.319999999999993      58.079999999999984
   189   1      12.319999999999993      58.079999999999984      56.319999999999993
   190   1      10.559999999999986      56.319999999999993      59.839999999999982
   191   1      10.559999999999986      58.079999999999984      61.599999999999994
   192   1      12.319999999999993      56.319999999999993      61.599999999999994
   193   1      12.319999999999993      58.079999999999984      59.839999999999982
   194   1      10.559999999999986      56.319999999999993      63.359999999999978
   195   1      10.559999999999986      58.079999999999984       65.11999999999999
   196   1      12.319999999999993      56.319999999999993       65.11999999999999
   197   1      12.319999999999993      58.079999999999984      63.359999999999978
   198   1      10.559999999999986      56.319999999999993      66.879999999999995
   199   1      12.319999999999993      56.319999999999993      68.640000000000001
   200   1      12.319999999999993      58.079999999999984      66.879999999999995
   201   1      10.559999999999986      61.599999999999994      47.519999999999982
   202   1      12.319999999999993      59.839999999999982      47.519999999999982
   203   1      12.319999999999993      61.599999999999994      45.759999999999991
   204   1      10.559999999999986      59.839999999999982       49.27999999999998
   205   1      10.559999999999986      61.599999999999994      51.039999999999985
   206   1      12.319999999999993      59.839999999999982      51.039999999999985
   207   1      12.319999999999993      61.599999999999994       49.27999999999998
   208   1      10.559999999999986      59.839999999999982      52.799999999999983
   209   1      10.559999999999986      61.599999999999994      54.559999999999981
   210   1      12.319999999999993      59.839999999999982      54.559999999999981
   211   1      12.319999999999993      61.599999999999994      52.799999999999983
   212   1      10.559999999999986      59.839999999999982      56.319999999999993
   213   1      10.559999999999986      61.599999999999994      58.079999999999984
   214   1      12.319999999999993      59.839999999999982      58.079999999999984
   215   1      12.319999999999993      61.599999999999994      56.319999999999993
   216   1      10.559999999999986      59.839999999999982      59.839999999999982
   217   1      10.559999999999986      61.599999999999994      61.599999999999994
   218   1      12.319999999999993      59.839999999999982      61.599999999999994
   219   1      12.319999999999993      61.599999999999994      59.839999999999982
   220   1      10.559999999999986      59.839999999999982      63.359999999999978
   221   1      10.559999999999986      61.599999999999994       65.11999999999999
   222   1      12.319999999999993      59.839999999999982       65.11999999999999
   223   1      12.319999999999993      61.599999999999994      63.359999999999978
   224   1      12.319999999999993      61.599999999999994      66.879999999999995
   225   1      10.559999999999986       65.11999999999999      47.519999999999982
   226   1      12.319999999999993      63.359999999999978      47.519999999999982
   227   1      12.319999999999993       65.11999999999999      45.759999999999991
   228   1      10.559999999999986      63.359999999999978       49.27999999999998
   229   1      10.559999999999986       65.11999999999999      51.039999999999985
   230   1      12.319999999999993      63.359999999999978      51.039999999999985
   231   1      12.319999999999993       65.11999999999999       49.27999999999998
   232   1      10.559999999999986      63.359999999999978      52.799999999999983
   233   1      10.559999999999986       65.11999999999999      54.559999999999981
   234   1      12.319999999999993      63.359999999999978      54.559999999999981
   235   1      12.319999999999993       65.11999999999999      52.799999999999983
   236   1      10.559999999999986      63.359999999999978      56.319999999999993
   237   1      10.559999999999986       65.11999999999999      58.079999999999984
   238   1      12.319999999999993      63.359999999999978      58.079999999999984
   239   1      12.319999999999993       65.11999999999999      56.319999999999993
   240   1      10.559999999999986      63.359999999999978      59.839999999999982
   241   1      10.559999999999986       65.11999999999999      61.599999999999994
   242   1      12.319999999999993      63.359999999999978      61.599999999999994
   243   1      12.319999999999993       65.11999999999999      59.839999999999982
   244   1      10.559999999999986      63.359999999999978      63.359999999999978
   245   1      10.559999999999986       65.11999999999999       65.11999999999999
   246   1      12.319999999999993      63.359999999999978       65.11999999999999
   247   1      12.319999999999993       65.11999999999999      63.359999999999978
   248   1      12.319999999999993       65.11999999999999      66.879999999999995
   249   1      12.319999999999993      66.879999999999995      47.519999999999982
   250   1      12.319999999999993      66.879999999999995      51.039999999999985
   251   1      12.319999999999993      66.879999999999995      54.559999999999981
   252   1      10.559999999999986      66.879999999999995      56.319999999999993
   253   1      12.319999999999993      66.879999999999995      58.079999999999984
   254   1      12.319999999999993      68.640000000000001      56.319999999999993
   255   1      12.319999999999993      66.879999999999995      61.599999999999994
   256   1      12.319999999999993      66.879999999999995       65.11999999999999
   257   1      15.839999999999987       40.47999999999999      56.319999999999993
   258   1      14.079999999999991      43.999999999999979      47.519999999999982
   259   1      15.839999999999987      42.239999999999981      47.519999999999982
   260   1      15.839999999999987      43.999999999999979      45.759999999999991
   261   1      14.079999999999991      43.999999999999979      51.039999999999985
   262   1      15.839999999999987      42.239999999999981      51.039999999999985
   263   1      15.839999999999987      43.999999999999979       49.27999999999998
   264   1      14.079999999999991      43.999999999999979      54.559999999999981
   265   1      15.839999999999987      42.239999999999981      54.559999999999981
   266   1      15.839999999999987      43.999999999999979      52.799999999999983
   267   1      14.079999999999991      42.239999999999981      56.319999999999993
   268   1      14.079999999999991      43.999999999999979      58.079999999999984
   269   1      15.839999999999987      42.239999999999981      58.079999999999984
   270   1      15.839999999999987      43.999999999999979      56.319999999999993
   271   1      14.079999999999991      43.999999999999979      61.599999999999994
   272   1      15.839999999999987      42.239999999999981      61.599999999999994
   273   1      15.839999999999987      43.999999999999979      59.839999999999982
   274   1      14.079999999999991      43.999999999999979       65.11999999999999
   275   1      15.839999999999987      42.239999999999981       65.11999999999999
   276   1      15.839999999999987      43.999999999999979      63.359999999999978
   277   1      15.839999999999987      43.999999999999979      66.879999999999995
   278   1      14.079999999999991      47.519999999999982      43.999999999999979
   279   1      15.839999999999987      45.759999999999991      43.999999999999979
   280   1      15.839999999999987      47.519999999999982      42.239999999999981
   281   1      14.079999999999991      45.759999999999991      45.759999999999991
   282   1      14.079999999999991      47.519999999999982      47.519999999999982
   283   1      15.839999999999987      45.759999999999991      47.519999999999982
   284   1      15.839999999999987      47.519999999999982      45.759999999999991
   285   1      14.079999999999991      45.759999999999991       49.27999999999998
   286   1      14.079999999999991      47.519999999999982      51.039999999999985
   287   1      15.839999999999987      45.759999999999991      51.039999999999985
   288   1      15.839999999999987      47.519999999999982       49.27999999999998
   289   1      14.079999999999991      45.759999999999991      52.799999999999983
   290   1      14.079999999999991      47.519999999999982      54.559999999999981
   291   1      15.839999999999987      45.759999999999991      54.559999999999981
   292   1      15.839999999999987      47.519999999999982      52.799999999999983
   293   1      14.079999999999991      45.759999999999991      56.319999999999993
   294   1      14.079999999999991      47.519999999999982      58.079999999999984
   295   1      15.839999999999987      45.759999999999991      58.079999999999984
   296   1      15.839999999999987      47.519999999999982      56.319999999999993
   297   1      14.079999999999991      45.759999999999991      59.839999999999982
   298   1      14.079999999999991      47.519999999999982      61.599999999999994
   299   1      15.839999999999987      45.759999999999991      61.599999999999994
   300   1      15.839999999999987      47.519999999999982      59.839999999999982
   301   1      14.079999999999991      45.759999999999991      63.359999999999978
   302   1      14.079999999999991      47.519999999999982       65.11999999999999
   303   1      15.839999999999987      45.759999999999991       65.11999999999999
   304   1      15.839999999999987      47.519999999999982      63.359999999999978
   305   1      14.079999999999991      45.759999999999991      66.879999999999995
   306   1      14.079999999999991      47.519999999999982      68.640000000000001
   307   1      15.839999999999987      45.759999999999991      68.640000000000001
   308   1      15.839999999999987      47.519999999999982      66.879999999999995
   309   1      15.839999999999987      47.519999999999982      70.399999999999991
   310   1      14.079999999999991      51.039999999999985      43.999999999999979
   311   1      15.839999999999987       49.27999999999998      43.999999999999979
   312   1      15.839999999999987      51.039999999999985      42.239999999999981
   313   1      14.079999999999991       49.27999999999998      45.759999999999991
   314   1      14.079999999999991      51.039999999999985      47.519999999999982
   315   1      15.839999999999987       49.27999999999998      47.519999999999982
   316   1      15.839999999999987      51.039999999999985      45.759999999999991
   317   1      14.079999999999991       49.27999999999998       49.27999999999998
   318   1      14.079999999999991      51.039999999999985      51.039999999999985
   319   1      15.839999999999987       49.27999999999998      51.039999999999985
   320   1      15.839999999999987      51.039999999999985       49.27999999999998
   321   1      14.079999999999991       49.27999999999998      52.799999999999983
   322   1      14.079999999999991      51.039999999999985      54.559999999999981
   323   1      15.839999999999987       49.27999999999998      54.559999999999981
   324   1      15.839999999999987      51.039999999999985      52.799999999999983
   325   1      14.079999999999991       49.27999999999998      56.319999999999993
   326   1      14.079999999999991      51.039999999999985      58.079999999999984
   327   1      15.839999999999987       49.27999999999998      58.079999999999984
   328   1      15.839999999999987      51.039999999999985      56.319999999999993
   329   1      14.079999999999991       49.27999999999998      59.839999999999982
   330   1      14.079999999999991      51.039999999999985      61.599999999999994
   331   1      15.839999999999987       49.27999999999998      61.599999999999994
   332   1      15.839999999999987      51.039999999999985      59.839999999999982
   333   1      14.079999999999991       49.27999999999998      63.359999999999978
   334   1      14.079999999999991      51.039999999999985       65.11999999999999
   335   1      15.839999999999987       49.27999999999998       65.11999999999999
   336   1      15.839999999999987      51.039999999999985      63.359999999999978
   337   1      14.079999999999991       49.27999999999998      66.879999999999995
   338   1      14.079999999999991      51.039999999999985      68.640000000000001
   339   1      15.839999999999987       49.27999999999998      68.640000000000001
   340   1      15.839999999999987      51.039999999999985      66.879999999999995
   341   1      15.839999999999987      51.039999999999985      70.399999999999991
   342   1      14.079999999999991      54.559999999999981      43.999999999999979
   343   1      15.839999999999987      52.799999999999983      43.999999999999979
   344   1      15.839999999999987      54.559999999999981      42.239999999999981
   345   1      14.079999999999991      52.799999999999983      45.759999999999991
   346   1      14.079999999999991      54.559999999999981      47.519999999999982
   347   1      15.839999999999987      52.799999999999983      47.519999999999982
   348   1      15.839999999999987      54.559999999999981      45.759999999999991
   349   1      14.079999999999991      52.799999999999983       49.27999999999998
   350   1      14.079999999999991      54.559999999999981      51.039999999999985
   351   1      15.839999999999987      52.799999999999983      51.039999999999985
   352   1      15.839999999999987      54.559999999999981       49.27999999999998
   353   1      14.079999999999991      52.799999999999983      52.799999999999983
   354   1      14.079999999999991      54.559999999999981      54.559999999999981
   355   1      15.839999999999987      52.799999999999983      54.559999999999981
   356   1      15.839999999999987      54.559999999999981      52.799999999999983
   357   1      14.079999999999991      52.799999999999983      56.319999999999993
   358   1      14.079999999999991      54.559999999999981      58.079999999999984