model_files/PdCu/PdCu_30000/PdCu_541/PdCu_541_fcc_30387_temp.data (written by ASE) 

30387 	 atoms 
2  atom types
0.0                     115  xlo xhi
0.0                     115  ylo yhi
0.0                     115  zlo zhi


Atoms 

     1   1      1.8875000000000028      54.737500000000004                  56.625
     2   1      1.8875000000000028                  56.625      54.737500000000004
     3   1                       0                  56.625                  56.625
     4   1      1.8875000000000028                  56.625      58.512500000000003
     5   1      1.8875000000000028      58.512500000000003                  56.625
     6   1      5.6625000000000014      50.962499999999999      52.850000000000001
     7   1      5.6625000000000014      50.962499999999999                  56.625
     8   1      5.6625000000000014      50.962499999999999      60.400000000000006
     9   1      5.6625000000000014      52.850000000000001      50.962499999999999
    10   1      3.7749999999999986      52.850000000000001      52.850000000000001
    11   1      3.7749999999999986      54.737500000000004      54.737500000000004
    12   1      5.6625000000000014      52.850000000000001      54.737500000000004
    13   1      5.6625000000000014      54.737500000000004      52.850000000000001
    14   1      3.7749999999999986      52.850000000000001                  56.625
    15   1      3.7749999999999986      54.737500000000004      58.512500000000003
    16   1      5.6625000000000014      52.850000000000001      58.512500000000003
    17   1      5.6625000000000014      54.737500000000004                  56.625
    18   1      3.7749999999999986      52.850000000000001      60.400000000000006
    19   1      5.6625000000000014      52.850000000000001      62.287500000000009
    20   1      5.6625000000000014      54.737500000000004      60.400000000000006
    21   1      5.6625000000000014                  56.625      50.962499999999999
    22   1      3.7749999999999986                  56.625      52.850000000000001
    23   1      3.7749999999999986      58.512500000000003      54.737500000000004
    24   1      5.6625000000000014                  56.625      54.737500000000004
    25   1      5.6625000000000014      58.512500000000003      52.850000000000001
    26   1      3.7749999999999986                  56.625                  56.625
    27   1      3.7749999999999986      58.512500000000003      58.512500000000003
    28   1      5.6625000000000014                  56.625      58.512500000000003
    29   1      5.6625000000000014      58.512500000000003                  56.625
    30   1      3.7749999999999986                  56.625      60.400000000000006
    31   1      5.6625000000000014                  56.625      62.287500000000009
    32   1      5.6625000000000014      58.512500000000003      60.400000000000006
    33   1      5.6625000000000014      60.400000000000006      50.962499999999999
    34   1      3.7749999999999986      60.400000000000006      52.850000000000001
    35   1      5.6625000000000014      60.400000000000006      54.737500000000004
    36   1      5.6625000000000014      62.287500000000009      52.850000000000001
    37   1      3.7749999999999986      60.400000000000006                  56.625
    38   1      5.6625000000000014      60.400000000000006      58.512500000000003
    39   1      5.6625000000000014      62.287500000000009                  56.625
    40   1      3.7749999999999986      60.400000000000006      60.400000000000006
    41   1      5.6625000000000014      60.400000000000006      62.287500000000009
    42   1      5.6625000000000014      62.287500000000009      60.400000000000006
    43   1                  9.4375                 47.1875      49.074999999999996
    44   1                  9.4375      45.299999999999997      54.737500000000004
    45   1                  9.4375                 47.1875      52.850000000000001
    46   1                  9.4375      45.299999999999997      58.512500000000003
    47   1                  9.4375                 47.1875                  56.625
    48   1                  9.4375                 47.1875      60.400000000000006
    49   1                  9.4375                 47.1875      64.174999999999997
    50   1                  9.4375      49.074999999999996                 47.1875
    51   1      7.5499999999999972      49.074999999999996      49.074999999999996
    52   1      7.5499999999999972      50.962499999999999      50.962499999999999
    53   1                  9.4375      49.074999999999996      50.962499999999999
    54   1                  9.4375      50.962499999999999      49.074999999999996
    55   1      7.5499999999999972      49.074999999999996      52.850000000000001
    56   1      7.5499999999999972      50.962499999999999      54.737500000000004
    57   1                  9.4375      49.074999999999996      54.737500000000004
    58   1                  9.4375      50.962499999999999      52.850000000000001
    59   1      7.5499999999999972      49.074999999999996                  56.625
    60   1      7.5499999999999972      50.962499999999999      58.512500000000003
    61   1                  9.4375      49.074999999999996      58.512500000000003
    62   1                  9.4375      50.962499999999999                  56.625
    63   1      7.5499999999999972      49.074999999999996      60.400000000000006
    64   1      7.5499999999999972      50.962499999999999      62.287500000000009
    65   1                  9.4375      49.074999999999996      62.287500000000009
    66   1                  9.4375      50.962499999999999      60.400000000000006
    67   1      7.5499999999999972      49.074999999999996      64.174999999999997
    68   1                  9.4375      49.074999999999996                 66.0625
    69   1                  9.4375      50.962499999999999      64.174999999999997
    70   1                  9.4375      52.850000000000001                 47.1875
    71   1                  9.4375      54.737500000000004      45.299999999999997
    72   1      7.5499999999999972      52.850000000000001      49.074999999999996
    73   1      7.5499999999999972      54.737500000000004      50.962499999999999
    74   1                  9.4375      52.850000000000001      50.962499999999999
    75   1                  9.4375      54.737500000000004      49.074999999999996
    76   1      7.5499999999999972      52.850000000000001      52.850000000000001
    77   1      7.5499999999999972      54.737500000000004      54.737500000000004
    78   1                  9.4375      52.850000000000001      54.737500000000004
    79   1                  9.4375      54.737500000000004      52.850000000000001
    80   1      7.5499999999999972      52.850000000000001                  56.625
    81   1      7.5499999999999972      54.737500000000004      58.512500000000003
    82   1                  9.4375      52.850000000000001      58.512500000000003
    83   1                  9.4375      54.737500000000004                  56.625
    84   1      7.5499999999999972      52.850000000000001      60.400000000000006
    85   1      7.5499999999999972      54.737500000000004      62.287500000000009
    86   1                  9.4375      52.850000000000001      62.287500000000009
    87   1                  9.4375      54.737500000000004      60.400000000000006
    88   1      7.5499999999999972      52.850000000000001      64.174999999999997
    89   1                  9.4375      52.850000000000001                 66.0625
    90   1                  9.4375      54.737500000000004      64.174999999999997
    91   1                  9.4375      54.737500000000004      67.950000000000003
    92   1                  9.4375                  56.625                 47.1875
    93   1                  9.4375      58.512500000000003      45.299999999999997
    94   1      7.5499999999999972                  56.625      49.074999999999996
    95   1      7.5499999999999972      58.512500000000003      50.962499999999999
    96   1                  9.4375                  56.625      50.962499999999999
    97   1                  9.4375      58.512500000000003      49.074999999999996
    98   1      7.5499999999999972                  56.625      52.850000000000001
    99   1      7.5499999999999972      58.512500000000003      54.737500000000004
   100   1                  9.4375                  56.625      54.737500000000004
   101   1                  9.4375      58.512500000000003      52.850000000000001
   102   1      7.5499999999999972                  56.625                  56.625
   103   1      7.5499999999999972      58.512500000000003      58.512500000000003
   104   1                  9.4375                  56.625      58.512500000000003
   105   1                  9.4375      58.512500000000003                  56.625
   106   1      7.5499999999999972                  56.625      60.400000000000006
   107   1      7.5499999999999972      58.512500000000003      62.287500000000009
   108   1                  9.4375                  56.625      62.287500000000009
   109   1                  9.4375      58.512500000000003      60.400000000000006
   110   1      7.5499999999999972                  56.625      64.174999999999997
   111   1                  9.4375                  56.625                 66.0625
   112   1                  9.4375      58.512500000000003      64.174999999999997
   113   1                  9.4375      58.512500000000003      67.950000000000003
   114   1                  9.4375      60.400000000000006                 47.1875
   115   1      7.5499999999999972      60.400000000000006      49.074999999999996
   116   1      7.5499999999999972      62.287500000000009      50.962499999999999
   117   1                  9.4375      60.400000000000006      50.962499999999999
   118   1                  9.4375      62.287500000000009      49.074999999999996
   119   1      7.5499999999999972      60.400000000000006      52.850000000000001
   120   1      7.5499999999999972      62.287500000000009      54.737500000000004
   121   1                  9.4375      60.400000000000006      54.737500000000004
   122   1                  9.4375      62.287500000000009      52.850000000000001
   123   1      7.5499999999999972      60.400000000000006                  56.625
   124   1      7.5499999999999972      62.287500000000009      58.512500000000003
   125   1                  9.4375      60.400000000000006      58.512500000000003
   126   1                  9.4375      62.287500000000009                  56.625
   127   1      7.5499999999999972      60.400000000000006      60.400000000000006
   128   1      7.5499999999999972      62.287500000000009      62.287500000000009
   129   1                  9.4375      60.400000000000006      62.287500000000009
   130   1                  9.4375      62.287500000000009      60.400000000000006
   131   1      7.5499999999999972      60.400000000000006      64.174999999999997
   132   1                  9.4375      60.400000000000006                 66.0625
   133   1                  9.4375      62.287500000000009      64.174999999999997
   134   1                  9.4375      64.174999999999997                 47.1875
   135   1      7.5499999999999972      64.174999999999997      49.074999999999996
   136   1                  9.4375      64.174999999999997      50.962499999999999
   137   1                  9.4375                 66.0625      49.074999999999996
   138   1      7.5499999999999972      64.174999999999997      52.850000000000001
   139   1                  9.4375      64.174999999999997      54.737500000000004
   140   1                  9.4375                 66.0625      52.850000000000001
   141   1      7.5499999999999972      64.174999999999997                  56.625
   142   1                  9.4375      64.174999999999997      58.512500000000003
   143   1                  9.4375                 66.0625                  56.625
   144   1      7.5499999999999972      64.174999999999997      60.400000000000006
   145   1                  9.4375      64.174999999999997      62.287500000000009
   146   1                  9.4375                 66.0625      60.400000000000006
   147   1      7.5499999999999972      64.174999999999997      64.174999999999997
   148   1                  9.4375      64.174999999999997                 66.0625
   149   1                  9.4375                 66.0625      64.174999999999997
   150   1                  9.4375      67.950000000000003      54.737500000000004
   151   1                  9.4375      67.950000000000003      58.512500000000003
   152   1      13.212499999999999      43.412500000000001      45.299999999999997
   153   1      13.212499999999999      41.524999999999999      50.962499999999999
   154   1      13.212499999999999      43.412500000000001      49.074999999999996
   155   1      11.325000000000003      43.412500000000001      54.737500000000004
   156   1      13.212499999999999      41.524999999999999      54.737500000000004
   157   1      13.212499999999999      43.412500000000001      52.850000000000001
   158   1      11.325000000000003      43.412500000000001      58.512500000000003
   159   1      13.212499999999999      41.524999999999999      58.512500000000003
   160   1      13.212499999999999      43.412500000000001                  56.625
   161   1      13.212499999999999      41.524999999999999      62.287500000000009
   162   1      13.212499999999999      43.412500000000001      60.400000000000006
   163   1      13.212499999999999      43.412500000000001      64.174999999999997
   164   1      13.212499999999999      43.412500000000001      67.950000000000003
   165   1      13.212499999999999      45.299999999999997      43.412500000000001
   166   1      11.325000000000003      45.299999999999997      45.299999999999997
   167   1      11.325000000000003                 47.1875                 47.1875
   168   1      13.212499999999999      45.299999999999997                 47.1875
   169   1      13.212499999999999                 47.1875      45.299999999999997
   170   1      11.325000000000003      45.299999999999997      49.074999999999996
   171   1      11.325000000000003                 47.1875      50.962499999999999
   172   1      13.212499999999999      45.299999999999997      50.962499999999999
   173   1      13.212499999999999                 47.1875      49.074999999999996
   174   1      11.325000000000003      45.299999999999997      52.850000000000001
   175   1      11.325000000000003                 47.1875      54.737500000000004
   176   1      13.212499999999999      45.299999999999997      54.737500000000004
   177   1      13.212499999999999                 47.1875      52.850000000000001
   178   1      11.325000000000003      45.299999999999997                  56.625
   179   1      11.325000000000003                 47.1875      58.512500000000003
   180   1      13.212499999999999      45.299999999999997      58.512500000000003
   181   1      13.212499999999999                 47.1875                  56.625
   182   1      11.325000000000003      45.299999999999997      60.400000000000006
   183   1      11.325000000000003                 47.1875      62.287500000000009
   184   1      13.212499999999999      45.299999999999997      62.287500000000009
   185   1      13.212499999999999                 47.1875      60.400000000000006
   186   1      11.325000000000003      45.299999999999997      64.174999999999997
   187   1      11.325000000000003                 47.1875                 66.0625
   188   1      13.212499999999999      45.299999999999997                 66.0625
   189   1      13.212499999999999                 47.1875      64.174999999999997
   190   1      11.325000000000003      45.299999999999997      67.950000000000003
   191   1      13.212499999999999      45.299999999999997      69.837500000000006
   192   1      13.212499999999999                 47.1875      67.950000000000003
   193   1      13.212499999999999      49.074999999999996      43.412500000000001
   194   1      13.212499999999999      50.962499999999999      41.524999999999999
   195   1      11.325000000000003      49.074999999999996      45.299999999999997
   196   1      11.325000000000003      50.962499999999999                 47.1875
   197   1      13.212499999999999      49.074999999999996                 47.1875
   198   1      13.212499999999999      50.962499999999999      45.299999999999997
   199   1      11.325000000000003      49.074999999999996      49.074999999999996
   200   1      11.325000000000003      50.962499999999999      50.962499999999999
   201   1      13.212499999999999      49.074999999999996      50.962499999999999
   202   1      13.212499999999999      50.962499999999999      49.074999999999996
   203   1      11.325000000000003      49.074999999999996      52.850000000000001
   204   1      11.325000000000003      50.962499999999999      54.737500000000004
   205   1      13.212499999999999      49.074999999999996      54.737500000000004
   206   1      13.212499999999999      50.962499999999999      52.850000000000001
   207   1      11.325000000000003      49.074999999999996                  56.625
   208   1      11.325000000000003      50.962499999999999      58.512500000000003
   209   1      13.212499999999999      49.074999999999996      58.512500000000003
   210   1      13.212499999999999      50.962499999999999                  56.625
   211   1      11.325000000000003      49.074999999999996      60.400000000000006
   212   1      11.325000000000003      50.962499999999999      62.287500000000009
   213   1      13.212499999999999      49.074999999999996      62.287500000000009
   214   1      13.212499999999999      50.962499999999999      60.400000000000006
   215   1      11.325000000000003      49.074999999999996      64.174999999999997
   216   1      11.325000000000003      50.962499999999999                 66.0625
   217   1      13.212499999999999      49.074999999999996                 66.0625
   218   1      13.212499999999999      50.962499999999999      64.174999999999997
   219   1      11.325000000000003      49.074999999999996      67.950000000000003
   220   1      13.212499999999999      49.074999999999996      69.837500000000006
   221   1      13.212499999999999      50.962499999999999      67.950000000000003
   222   1      13.212499999999999      50.962499999999999      71.724999999999994
   223   1      11.325000000000003      54.737500000000004      43.412500000000001
   224   1      13.212499999999999      52.850000000000001      43.412500000000001
   225   1      13.212499999999999      54.737500000000004      41.524999999999999
   226   1      11.325000000000003      52.850000000000001      45.299999999999997
   227   1      11.325000000000003      54.737500000000004                 47.1875
   228   1      13.212499999999999      52.850000000000001                 47.1875
   229   1      13.212499999999999      54.737500000000004      45.299999999999997
   230   1      11.325000000000003      52.850000000000001      49.074999999999996
   231   1      11.325000000000003      54.737500000000004      50.962499999999999
   232   1      13.212499999999999      52.850000000000001      50.962499999999999
   233   1      13.212499999999999      54.737500000000004      49.074999999999996
   234   1      11.325000000000003      52.850000000000001      52.850000000000001
   235   1      11.325000000000003      54.737500000000004      54.737500000000004
   236   1      13.212499999999999      52.850000000000001      54.737500000000004
   237   1      13.212499999999999      54.737500000000004      52.850000000000001
   238   1      11.325000000000003      52.850000000000001                  56.625
   239   1      11.325000000000003      54.737500000000004      58.512500000000003
   240   1      13.212499999999999      52.850000000000001      58.512500000000003
   241   1      13.212499999999999      54.737500000000004                  56.625
   242   1      11.325000000000003      52.850000000000001      60.400000000000006
   243   1      11.325000000000003      54.737500000000004      62.287500000000009
   244   1      13.212499999999999      52.850000000000001      62.287500000000009
   245   1      13.212499999999999      54.737500000000004      60.400000000000006
   246   1      11.325000000000003      52.850000000000001      64.174999999999997
   247   1      11.325000000000003      54.737500000000004                 66.0625
   248   1      13.212499999999999      52.850000000000001                 66.0625
   249   1      13.212499999999999      54.737500000000004      64.174999999999997
   250   1      11.325000000000003      52.850000000000001      67.950000000000003
   251   1      11.325000000000003      54.737500000000004      69.837500000000006
   252   1      13.212499999999999      52.850000000000001      69.837500000000006
   253   1      13.212499999999999      54.737500000000004      67.950000000000003
   254   1      13.212499999999999      54.737500000000004      71.724999999999994
   255   1      11.325000000000003      58.512500000000003      43.412500000000001
   256   1      13.212499999999999                  56.625      43.412500000000001
   257   1      13.212499999999999      58.512500000000003      41.524999999999999
   258   1      11.325000000000003                  56.625      45.299999999999997
   259   1      11.325000000000003      58.512500000000003                 47.1875
   260   1      13.212499999999999                  56.625                 47.1875
   261   1      13.212499999999999      58.512500000000003      45.299999999999997
   262   1      11.325000000000003                  56.625      49.074999999999996
   263   1      11.325000000000003      58.512500000000003      50.962499999999999
   264   1      13.212499999999999                  56.625      50.962499999999999
   265   1      13.212499999999999      58.512500000000003      49.074999999999996
   266   1      11.325000000000003                  56.625      52.850000000000001
   267   1      11.325000000000003      58.512500000000003      54.737500000000004
   268   1      13.212499999999999                  56.625      54.737500000000004
   269   1      13.212499999999999      58.512500000000003      52.850000000000001
   270   1      11.325000000000003                  56.625                  56.625
   271   1      11.325000000000003      58.512500000000003      58.512500000000003
   272   1      13.212499999999999                  56.625      58.512500000000003
   273   1      13.212499999999999      58.512500000000003                  56.625
   274   1      11.325000000000003                  56.625      60.400000000000006
   275   1      11.325000000000003      58.512500000000003      62.287500000000009
   276   1      13.212499999999999                  56.625      62.287500000000009
   277   1      13.212499999999999      58.512500000000003      60.400000000000006
   278   1      11.325000000000003                  56.625      64.174999999999997
   279   1      11.325000000000003      58.512500000000003                 66.0625
   280   1      13.212499999999999                  56.625                 66.0625
   281   1      13.212499999999999      58.512500000000003      64.174999999999997
   282   1      11.325000000000003                  56.625      67.950000000000003
   283   1      11.325000000000003      58.512500000000003      69.837500000000006
   284   1      13.212499999999999                  56.625      69.837500000000006
   285   1      13.212499999999999      58.512500000000003      67.950000000000003
   286   1      13.212499999999999      58.512500000000003      71.724999999999994
   287   1      13.212499999999999      60.400000000000006      43.412500000000001
   288   1      13.212499999999999      62.287500000000009      41.524999999999999
   289   1      11.325000000000003      60.400000000000006      45.299999999999997
   290   1      11.325000000000003      62.287500000000009                 47.1875
   291   1      13.212499999999999      60.400000000000006                 47.1875
   292   1      13.212499999999999      62.287500000000009      45.299999999999997
   293   1      11.325000000000003      60.400000000000006      49.074999999999996
   294   1      11.325000000000003      62.287500000000009      50.962499999999999
   295   1      13.212499999999999      60.400000000000006      50.962499999999999
   296   1      13.212499999999999      62.287500000000009      49.074999999999996
   297   1      11.325000000000003      60.400000000000006      52.850000000000001
   298   1      11.325000000000003      62.287500000000009      54.737500000000004
   299   1      13.212499999999999      60.400000000000006      54.737500000000004
   300   1      13.212499999999999      62.287500000000009      52.850000000000001
   301   1      11.325000000000003      60.400000000000006                  56.625
   302   1      11.325000000000003      62.287500000000009      58.512500000000003
   303   1      13.212499999999999      60.400000000000006      58.512500000000003
   304   1      13.212499999999999      62.287500000000009                  56.625
   305   1      11.325000000000003      60.400000000000006      60.400000000000006
   306   1      11.325000000000003      62.287500000000009      62.287500000000009
   307   1      13.212499999999999      60.400000000000006      62.287500000000009
   308   1      13.212499999999999      62.287500000000009      60.400000000000006
   309   1      11.325000000000003      60.400000000000006      64.174999999999997
   310   1      11.325000000000003      62.287500000000009                 66.0625
   311   1      13.212499999999999      60.400000000000006                 66.0625
   312   1      13.212499999999999      62.287500000000009      64.174999999999997
   313   1      11.325000000000003      60.400000000000006      67.950000000000003
   314   1      13.212499999999999      60.400000000000006      69.837500000000006
   315   1      13.212499999999999      62.287500000000009      67.950000000000003
   316   1      13.212499999999999      62.287500000000009      71.724999999999994
   317   1      13.212499999999999      64.174999999999997      43.412500000000001
   318   1      11.325000000000003      64.174999999999997      45.299999999999997
   319   1      11.325000000000003                 66.0625                 47.1875
   320   1      13.212499999999999      64.174999999999997                 47.1875
   321   1      13.212499999999999                 66.0625      45.299999999999997
   322   1      11.325000000000003      64.174999999999997      49.074999999999996
   323   1      11.325000000000003                 66.0625      50.962499999999999
   324   1      13.212499999999999      64.174999999999997      50.962499999999999
   325   1      13.212499999999999                 66.0625      49.074999999999996
   326   1      11.325000000000003      64.174999999999997      52.850000000000001
   327   1      11.325000000000003                 66.0625      54.737500000000004
   328   1      13.212499999999999      64.174999999999997      54.737500000000004
   329   1      13.212499999999999                 66.0625      52.850000000000001
   330   1      11.325000000000003      64.174999999999997                  56.625
   331   1      11.325000000000003                 66.0625      58.512500000000003
   332   1      13.212499999999999      64.174999999999997      58.512500000000003
   333   1      13.212499999999999                 66.0625                  56.625
   334   1      11.325000000000003      64.174999999999997      60.400000000000006
   335   1      11.325000000000003                 66.0625      62.287500000000009
   336   1      13.212499999999999      64.174999999999997      62.287500000000009
   337   1      13.212499999999999                 66.0625      60.400000000000006
   338   1      11.325000000000003      64.174999999999997      64.174999999999997
   339   1      11.325000000000003                 66.0625                 66.0625
   340   1      13.212499999999999      64.174999999999997                 66.0625
   341   1      13.212499999999999                 66.0625      64.174999999999997
   342   1      11.325000000000003      64.174999999999997      67.950000000000003
   343   1      13.212499999999999      64.174999999999997      69.837500000000006
   344   1      13.212499999999999                 66.0625      67.950000000000003
   345   1      13.212499999999999      67.950000000000003      43.412500000000001
   346   1      11.325000000000003      67.950000000000003      45.299999999999997
   347   1      13.212499999999999      67.950000000000003                 47.1875
   348   1      13.212499999999999      69.837500000000006      45.299999999999997
   349   1      11.325000000000003      67.950000000000003      49.074999999999996
   350   1      13.212499999999999      67.950000000000003      50.962499999999999
   351   1      13.212499999999999      69.837500000000006      49.074999999999996
   352   1      11.325000000000003      67.950000000000003      52.850000000000001
   353   1      11.325000000000003      69.837500000000006      54.737500000000004
   354   1      13.212499999999999      67.950000000000003      54.737500000000004
   355   1      13.212499999999999      69.837500000000006      52.850000000000001
   356   1      11.325000000000003      67.950000000000003                  56.625
   357   1      11.325000000000003      69.837500000000006      58.512500000000003
   358   1      13.212499999999999      67.950000000000003      58.512500000000003