model_files/PtAu/PtAu_30000/PtAu_321/PtAu_321_fcc_29817_temp.data (written by ASE) 

29817 	 atoms 
2  atom types
0.0                     115  xlo xhi
0.0                     115  ylo yhi
0.0                     115  zlo zhi


Atoms 

     1   1      2.0214999999999961      50.537500000000001      56.601999999999997
     2   1      114.99999999999999      54.580500000000001      54.580500000000001
     3   1      2.0214999999999961      52.558999999999997      54.580500000000001
     4   1      2.0214999999999961      54.580500000000001      52.558999999999997
     5   1      114.99999999999999      54.580500000000001      58.623500000000007
     6   1      2.0214999999999961      52.558999999999997      58.623500000000007
     7   1      2.0214999999999961      54.580500000000001      56.601999999999997
     8   1      2.0214999999999961      54.580500000000001      60.644999999999996
     9   1      2.0214999999999961      56.601999999999997      50.537500000000001
    10   1      114.99999999999999      58.623500000000007      54.580500000000001
    11   1      2.0214999999999961      56.601999999999997      54.580500000000001
    12   1      2.0214999999999961      58.623500000000007      52.558999999999997
    13   1      114.99999999999999      56.601999999999997      56.601999999999997
    14   1      114.99999999999999      58.623500000000007      58.623500000000007
    15   1      2.0214999999999961      56.601999999999997      58.623500000000007
    16   1      2.0214999999999961      58.623500000000007      56.601999999999997
    17   1      2.0214999999999961      56.601999999999997      62.666500000000006
    18   1      2.0214999999999961      58.623500000000007      60.644999999999996
    19   1      2.0214999999999961      60.644999999999996      54.580500000000001
    20   1      2.0214999999999961      60.644999999999996      58.623500000000007
    21   1      2.0214999999999961      62.666500000000006      56.601999999999997
    22   1      6.0644999999999962      46.494500000000002      52.558999999999997
    23   1      6.0644999999999962      46.494500000000002      56.601999999999997
    24   1      6.0644999999999962      46.494500000000002      60.644999999999996
    25   1      4.0429999999999922      50.537500000000001      50.537500000000001
    26   1      6.0644999999999962      48.515999999999998      50.537500000000001
    27   1      6.0644999999999962      50.537500000000001      48.515999999999998
    28   1      4.0429999999999922      50.537500000000001      54.580500000000001
    29   1      6.0644999999999962      48.515999999999998      54.580500000000001
    30   1      6.0644999999999962      50.537500000000001      52.558999999999997
    31   1      4.0429999999999922      48.515999999999998      56.601999999999997
    32   1      4.0429999999999922      50.537500000000001      58.623500000000007
    33   1      6.0644999999999962      48.515999999999998      58.623500000000007
    34   1      6.0644999999999962      50.537500000000001      56.601999999999997
    35   1      4.0429999999999922      50.537500000000001      62.666500000000006
    36   1      6.0644999999999962      48.515999999999998      62.666500000000006
    37   1      6.0644999999999962      50.537500000000001      60.644999999999996
    38   1      6.0644999999999962      50.537500000000001      64.688000000000002
    39   1      6.0644999999999962      52.558999999999997      46.494500000000002
    40   1      4.0429999999999922      54.580500000000001      50.537500000000001
    41   1      6.0644999999999962      52.558999999999997      50.537500000000001
    42   1      6.0644999999999962      54.580500000000001      48.515999999999998
    43   1      4.0429999999999922      52.558999999999997      52.558999999999997
    44   1      4.0429999999999922      54.580500000000001      54.580500000000001
    45   1      6.0644999999999962      52.558999999999997      54.580500000000001
    46   1      6.0644999999999962      54.580500000000001      52.558999999999997
    47   1      4.0429999999999922      52.558999999999997      56.601999999999997
    48   1      4.0429999999999922      54.580500000000001      58.623500000000007
    49   1      6.0644999999999962      52.558999999999997      58.623500000000007
    50   1      6.0644999999999962      54.580500000000001      56.601999999999997
    51   1      4.0429999999999922      52.558999999999997      60.644999999999996
    52   1      4.0429999999999922      54.580500000000001      62.666500000000006
    53   1      6.0644999999999962      52.558999999999997      62.666500000000006
    54   1      6.0644999999999962      54.580500000000001      60.644999999999996
    55   1      6.0644999999999962      52.558999999999997      66.709500000000006
    56   1      6.0644999999999962      54.580500000000001      64.688000000000002
    57   1      6.0644999999999962      56.601999999999997      46.494500000000002
    58   1      4.0429999999999922      56.601999999999997      48.515999999999998
    59   1      4.0429999999999922      58.623500000000007      50.537500000000001
    60   1      6.0644999999999962      56.601999999999997      50.537500000000001
    61   1      6.0644999999999962      58.623500000000007      48.515999999999998
    62   1      4.0429999999999922      56.601999999999997      52.558999999999997
    63   1      4.0429999999999922      58.623500000000007      54.580500000000001
    64   1      6.0644999999999962      56.601999999999997      54.580500000000001
    65   1      6.0644999999999962      58.623500000000007      52.558999999999997
    66   1      4.0429999999999922      56.601999999999997      56.601999999999997
    67   1      4.0429999999999922      58.623500000000007      58.623500000000007
    68   1      6.0644999999999962      56.601999999999997      58.623500000000007
    69   1      6.0644999999999962      58.623500000000007      56.601999999999997
    70   1      4.0429999999999922      56.601999999999997      60.644999999999996
    71   1      4.0429999999999922      58.623500000000007      62.666500000000006
    72   1      6.0644999999999962      56.601999999999997      62.666500000000006
    73   1      6.0644999999999962      58.623500000000007      60.644999999999996
    74   1      4.0429999999999922      56.601999999999997      64.688000000000002
    75   1      6.0644999999999962      56.601999999999997      66.709500000000006
    76   1      6.0644999999999962      58.623500000000007      64.688000000000002
    77   1      6.0644999999999962      60.644999999999996      46.494500000000002
    78   1      4.0429999999999922      62.666500000000006      50.537500000000001
    79   1      6.0644999999999962      60.644999999999996      50.537500000000001
    80   1      6.0644999999999962      62.666500000000006      48.515999999999998
    81   1      4.0429999999999922      60.644999999999996      52.558999999999997
    82   1      4.0429999999999922      62.666500000000006      54.580500000000001
    83   1      6.0644999999999962      60.644999999999996      54.580500000000001
    84   1      6.0644999999999962      62.666500000000006      52.558999999999997
    85   1      4.0429999999999922      60.644999999999996      56.601999999999997
    86   1      4.0429999999999922      62.666500000000006      58.623500000000007
    87   1      6.0644999999999962      60.644999999999996      58.623500000000007
    88   1      6.0644999999999962      62.666500000000006      56.601999999999997
    89   1      4.0429999999999922      60.644999999999996      60.644999999999996
    90   1      4.0429999999999922      62.666500000000006      62.666500000000006
    91   1      6.0644999999999962      60.644999999999996      62.666500000000006
    92   1      6.0644999999999962      62.666500000000006      60.644999999999996
    93   1      6.0644999999999962      60.644999999999996      66.709500000000006
    94   1      6.0644999999999962      62.666500000000006      64.688000000000002
    95   1      6.0644999999999962      64.688000000000002      50.537500000000001
    96   1      6.0644999999999962      64.688000000000002      54.580500000000001
    97   1      6.0644999999999962      66.709500000000006      52.558999999999997
    98   1      4.0429999999999922      64.688000000000002      56.601999999999997
    99   1      6.0644999999999962      64.688000000000002      58.623500000000007
   100   1      6.0644999999999962      66.709500000000006      56.601999999999997
   101   1      6.0644999999999962      64.688000000000002      62.666500000000006
   102   1      6.0644999999999962      66.709500000000006      60.644999999999996
   103   1      10.107499999999995      38.408499999999997      56.601999999999997
   104   1      10.107499999999995      42.451499999999996      48.515999999999998
   105   1      8.0859999999999914      42.451499999999996      54.580500000000001
   106   1      10.107499999999995      40.429999999999993      54.580500000000001
   107   1      10.107499999999995      42.451499999999996      52.558999999999997
   108   1      8.0859999999999914      42.451499999999996      58.623500000000007
   109   1      10.107499999999995      40.429999999999993      58.623500000000007
   110   1      10.107499999999995      42.451499999999996      56.601999999999997
   111   1      10.107499999999995      42.451499999999996      60.644999999999996
   112   1      10.107499999999995      42.451499999999996      64.688000000000002
   113   1      8.0859999999999914      46.494500000000002      46.494500000000002
   114   1      10.107499999999995      44.472999999999999      46.494500000000002
   115   1      10.107499999999995      46.494500000000002      44.472999999999999
   116   1      8.0859999999999914      46.494500000000002      50.537500000000001
   117   1      10.107499999999995      44.472999999999999      50.537500000000001
   118   1      10.107499999999995      46.494500000000002      48.515999999999998
   119   1      8.0859999999999914      44.472999999999999      52.558999999999997
   120   1      8.0859999999999914      46.494500000000002      54.580500000000001
   121   1      10.107499999999995      44.472999999999999      54.580500000000001
   122   1      10.107499999999995      46.494500000000002      52.558999999999997
   123   1      8.0859999999999914      44.472999999999999      56.601999999999997
   124   1      8.0859999999999914      46.494500000000002      58.623500000000007
   125   1      10.107499999999995      44.472999999999999      58.623500000000007
   126   1      10.107499999999995      46.494500000000002      56.601999999999997
   127   1      8.0859999999999914      44.472999999999999      60.644999999999996
   128   1      8.0859999999999914      46.494500000000002      62.666500000000006
   129   1      10.107499999999995      44.472999999999999      62.666500000000006
   130   1      10.107499999999995      46.494500000000002      60.644999999999996
   131   1      8.0859999999999914      46.494500000000002      66.709500000000006
   132   1      10.107499999999995      44.472999999999999      66.709500000000006
   133   1      10.107499999999995      46.494500000000002      64.688000000000002
   134   1      10.107499999999995      46.494500000000002      68.730999999999995
   135   1      10.107499999999995      48.515999999999998      42.451499999999996
   136   1      8.0859999999999914      50.537500000000001      46.494500000000002
   137   1      10.107499999999995      48.515999999999998      46.494500000000002
   138   1      10.107499999999995      50.537500000000001      44.472999999999999
   139   1      8.0859999999999914      48.515999999999998      48.515999999999998
   140   1      8.0859999999999914      50.537500000000001      50.537500000000001
   141   1      10.107499999999995      48.515999999999998      50.537500000000001
   142   1      10.107499999999995      50.537500000000001      48.515999999999998
   143   1      8.0859999999999914      48.515999999999998      52.558999999999997
   144   1      8.0859999999999914      50.537500000000001      54.580500000000001
   145   1      10.107499999999995      48.515999999999998      54.580500000000001
   146   1      10.107499999999995      50.537500000000001      52.558999999999997
   147   1      8.0859999999999914      48.515999999999998      56.601999999999997
   148   1      8.0859999999999914      50.537500000000001      58.623500000000007
   149   1      10.107499999999995      48.515999999999998      58.623500000000007
   150   1      10.107499999999995      50.537500000000001      56.601999999999997
   151   1      8.0859999999999914      48.515999999999998      60.644999999999996
   152   1      8.0859999999999914      50.537500000000001      62.666500000000006
   153   1      10.107499999999995      48.515999999999998      62.666500000000006
   154   1      10.107499999999995      50.537500000000001      60.644999999999996
   155   1      8.0859999999999914      48.515999999999998      64.688000000000002
   156   1      8.0859999999999914      50.537500000000001      66.709500000000006
   157   1      10.107499999999995      48.515999999999998      66.709500000000006
   158   1      10.107499999999995      50.537500000000001      64.688000000000002
   159   1      10.107499999999995      48.515999999999998      70.752499999999998
   160   1      10.107499999999995      50.537500000000001      68.730999999999995
   161   1      8.0859999999999914      54.580500000000001      42.451499999999996
   162   1      10.107499999999995      52.558999999999997      42.451499999999996
   163   1      10.107499999999995      54.580500000000001      40.429999999999993
   164   1      8.0859999999999914      52.558999999999997      44.472999999999999
   165   1      8.0859999999999914      54.580500000000001      46.494500000000002
   166   1      10.107499999999995      52.558999999999997      46.494500000000002
   167   1      10.107499999999995      54.580500000000001      44.472999999999999
   168   1      8.0859999999999914      52.558999999999997      48.515999999999998
   169   1      8.0859999999999914      54.580500000000001      50.537500000000001
   170   1      10.107499999999995      52.558999999999997      50.537500000000001
   171   1      10.107499999999995      54.580500000000001      48.515999999999998
   172   1      8.0859999999999914      52.558999999999997      52.558999999999997
   173   1      8.0859999999999914      54.580500000000001      54.580500000000001
   174   1      10.107499999999995      52.558999999999997      54.580500000000001
   175   1      10.107499999999995      54.580500000000001      52.558999999999997
   176   1      8.0859999999999914      52.558999999999997      56.601999999999997
   177   1      8.0859999999999914      54.580500000000001      58.623500000000007
   178   1      10.107499999999995      52.558999999999997      58.623500000000007
   179   1      10.107499999999995      54.580500000000001      56.601999999999997
   180   1      8.0859999999999914      52.558999999999997      60.644999999999996
   181   1      8.0859999999999914      54.580500000000001      62.666500000000006
   182   1      10.107499999999995      52.558999999999997      62.666500000000006
   183   1      10.107499999999995      54.580500000000001      60.644999999999996
   184   1      8.0859999999999914      52.558999999999997      64.688000000000002
   185   1      8.0859999999999914      54.580500000000001      66.709500000000006
   186   1      10.107499999999995      52.558999999999997      66.709500000000006
   187   1      10.107499999999995      54.580500000000001      64.688000000000002
   188   1      8.0859999999999914      52.558999999999997      68.730999999999995
   189   1      8.0859999999999914      54.580500000000001      70.752499999999998
   190   1      10.107499999999995      52.558999999999997      70.752499999999998
   191   1      10.107499999999995      54.580500000000001      68.730999999999995
   192   1      10.107499999999995      54.580500000000001      72.774000000000001
   193   1      10.107499999999995      56.601999999999997      38.408499999999997
   194   1      8.0859999999999914      58.623500000000007      42.451499999999996
   195   1      10.107499999999995      56.601999999999997      42.451499999999996
   196   1      10.107499999999995      58.623500000000007      40.429999999999993
   197   1      8.0859999999999914      56.601999999999997      44.472999999999999
   198   1      8.0859999999999914      58.623500000000007      46.494500000000002
   199   1      10.107499999999995      56.601999999999997      46.494500000000002
   200   1      10.107499999999995      58.623500000000007      44.472999999999999
   201   1      8.0859999999999914      56.601999999999997      48.515999999999998
   202   1      8.0859999999999914      58.623500000000007      50.537500000000001
   203   1      10.107499999999995      56.601999999999997      50.537500000000001
   204   1      10.107499999999995      58.623500000000007      48.515999999999998
   205   1      8.0859999999999914      56.601999999999997      52.558999999999997
   206   1      8.0859999999999914      58.623500000000007      54.580500000000001
   207   1      10.107499999999995      56.601999999999997      54.580500000000001
   208   1      10.107499999999995      58.623500000000007      52.558999999999997
   209   1      8.0859999999999914      56.601999999999997      56.601999999999997
   210   1      8.0859999999999914      58.623500000000007      58.623500000000007
   211   1      10.107499999999995      56.601999999999997      58.623500000000007
   212   1      10.107499999999995      58.623500000000007      56.601999999999997
   213   1      8.0859999999999914      56.601999999999997      60.644999999999996
   214   1      8.0859999999999914      58.623500000000007      62.666500000000006
   215   1      10.107499999999995      56.601999999999997      62.666500000000006
   216   1      10.107499999999995      58.623500000000007      60.644999999999996
   217   1      8.0859999999999914      56.601999999999997      64.688000000000002
   218   1      8.0859999999999914      58.623500000000007      66.709500000000006
   219   1      10.107499999999995      56.601999999999997      66.709500000000006
   220   1      10.107499999999995      58.623500000000007      64.688000000000002
   221   1      8.0859999999999914      56.601999999999997      68.730999999999995
   222   1      8.0859999999999914      58.623500000000007      70.752499999999998
   223   1      10.107499999999995      56.601999999999997      70.752499999999998
   224   1      10.107499999999995      58.623500000000007      68.730999999999995
   225   1      10.107499999999995      56.601999999999997      74.795500000000004
   226   1      10.107499999999995      58.623500000000007      72.774000000000001
   227   1      10.107499999999995      60.644999999999996      42.451499999999996
   228   1      8.0859999999999914      60.644999999999996      44.472999999999999
   229   1      8.0859999999999914      62.666500000000006      46.494500000000002
   230   1      10.107499999999995      60.644999999999996      46.494500000000002
   231   1      10.107499999999995      62.666500000000006      44.472999999999999
   232   1      8.0859999999999914      60.644999999999996      48.515999999999998
   233   1      8.0859999999999914      62.666500000000006      50.537500000000001
   234   1      10.107499999999995      60.644999999999996      50.537500000000001
   235   1      10.107499999999995      62.666500000000006      48.515999999999998
   236   1      8.0859999999999914      60.644999999999996      52.558999999999997
   237   1      8.0859999999999914      62.666500000000006      54.580500000000001
   238   1      10.107499999999995      60.644999999999996      54.580500000000001
   239   1      10.107499999999995      62.666500000000006      52.558999999999997
   240   1      8.0859999999999914      60.644999999999996      56.601999999999997
   241   1      8.0859999999999914      62.666500000000006      58.623500000000007
   242   1      10.107499999999995      60.644999999999996      58.623500000000007
   243   1      10.107499999999995      62.666500000000006      56.601999999999997
   244   1      8.0859999999999914      60.644999999999996      60.644999999999996
   245   1      8.0859999999999914      62.666500000000006      62.666500000000006
   246   1      10.107499999999995      60.644999999999996      62.666500000000006
   247   1      10.107499999999995      62.666500000000006      60.644999999999996
   248   1      8.0859999999999914      60.644999999999996      64.688000000000002
   249   1      8.0859999999999914      62.666500000000006      66.709500000000006
   250   1      10.107499999999995      60.644999999999996      66.709500000000006
   251   1      10.107499999999995      62.666500000000006      64.688000000000002
   252   1      8.0859999999999914      60.644999999999996      68.730999999999995
   253   1      10.107499999999995      60.644999999999996      70.752499999999998
   254   1      10.107499999999995      62.666500000000006      68.730999999999995
   255   1      10.107499999999995      64.688000000000002      42.451499999999996
   256   1      8.0859999999999914      66.709500000000006      46.494500000000002
   257   1      10.107499999999995      64.688000000000002      46.494500000000002
   258   1      10.107499999999995      66.709500000000006      44.472999999999999
   259   1      8.0859999999999914      64.688000000000002      48.515999999999998
   260   1      8.0859999999999914      66.709500000000006      50.537500000000001
   261   1      10.107499999999995      64.688000000000002      50.537500000000001
   262   1      10.107499999999995      66.709500000000006      48.515999999999998
   263   1      8.0859999999999914      64.688000000000002      52.558999999999997
   264   1      8.0859999999999914      66.709500000000006      54.580500000000001
   265   1      10.107499999999995      64.688000000000002      54.580500000000001
   266   1      10.107499999999995      66.709500000000006      52.558999999999997
   267   1      8.0859999999999914      64.688000000000002      56.601999999999997
   268   1      8.0859999999999914      66.709500000000006      58.623500000000007
   269   1      10.107499999999995      64.688000000000002      58.623500000000007
   270   1      10.107499999999995      66.709500000000006      56.601999999999997
   271   1      8.0859999999999914      64.688000000000002      60.644999999999996
   272   1      8.0859999999999914      66.709500000000006      62.666500000000006
   273   1      10.107499999999995      64.688000000000002      62.666500000000006
   274   1      10.107499999999995      66.709500000000006      60.644999999999996
   275   1      8.0859999999999914      64.688000000000002      64.688000000000002
   276   1      8.0859999999999914      66.709500000000006      66.709500000000006
   277   1      10.107499999999995      64.688000000000002      66.709500000000006
   278   1      10.107499999999995      66.709500000000006      64.688000000000002
   279   1      10.107499999999995      64.688000000000002      70.752499999999998
   280   1      10.107499999999995      66.709500000000006      68.730999999999995
   281   1      10.107499999999995      68.730999999999995      46.494500000000002
   282   1      10.107499999999995      68.730999999999995      50.537500000000001
   283   1      10.107499999999995      70.752499999999998      48.515999999999998
   284   1      8.0859999999999914      68.730999999999995      52.558999999999997
   285   1      8.0859999999999914      70.752499999999998      54.580500000000001
   286   1      10.107499999999995      68.730999999999995      54.580500000000001
   287   1      10.107499999999995      70.752499999999998      52.558999999999997
   288   1      8.0859999999999914      68.730999999999995      56.601999999999997
   289   1      8.0859999999999914      70.752499999999998      58.623500000000007
   290   1      10.107499999999995      68.730999999999995      58.623500000000007
   291   1      10.107499999999995      70.752499999999998      56.601999999999997
   292   1      8.0859999999999914      68.730999999999995      60.644999999999996
   293   1      10.107499999999995      68.730999999999995      62.666500000000006
   294   1      10.107499999999995      70.752499999999998      60.644999999999996
   295   1      10.107499999999995      68.730999999999995      66.709500000000006
   296   1      10.107499999999995      70.752499999999998      64.688000000000002
   297   1      10.107499999999995      72.774000000000001      54.580500000000001
   298   1      10.107499999999995      72.774000000000001      58.623500000000007
   299   1      10.107499999999995      74.795500000000004      56.601999999999997
   300   1      14.150499999999994      34.365499999999997      52.558999999999997
   301   1      14.150499999999994      34.365499999999997      56.601999999999997
   302   1      14.150499999999994      34.365499999999997      60.644999999999996
   303   1      14.150499999999994      38.408499999999997      44.472999999999999
   304   1      12.128999999999998      38.408499999999997      50.537500000000001
   305   1      14.150499999999994      36.386999999999993      50.537500000000001
   306   1      14.150499999999994      38.408499999999997      48.515999999999998
   307   1      12.128999999999998      38.408499999999997      54.580500000000001
   308   1      14.150499999999994      36.386999999999993      54.580500000000001
   309   1      14.150499999999994      38.408499999999997      52.558999999999997
   310   1      12.128999999999998      36.386999999999993      56.601999999999997
   311   1      12.128999999999998      38.408499999999997      58.623500000000007
   312   1      14.150499999999994      36.386999999999993      58.623500000000007
   313   1      14.150499999999994      38.408499999999997      56.601999999999997
   314   1      12.128999999999998      38.408499999999997      62.666500000000006
   315   1      14.150499999999994      36.386999999999993      62.666500000000006
   316   1      14.150499999999994      38.408499999999997      60.644999999999996
   317   1      14.150499999999994      38.408499999999997      64.688000000000002
   318   1      14.150499999999994      38.408499999999997      68.730999999999995
   319   1      12.128999999999998      42.451499999999996      42.451499999999996
   320   1      14.150499999999994      40.429999999999993      42.451499999999996
   321   1      14.150499999999994      42.451499999999996      40.429999999999993
   322   1      12.128999999999998      42.451499999999996      46.494500000000002
   323   1      14.150499999999994      40.429999999999993      46.494500000000002
   324   1      14.150499999999994      42.451499999999996      44.472999999999999
   325   1      12.128999999999998      40.429999999999993      48.515999999999998
   326   1      12.128999999999998      42.451499999999996      50.537500000000001
   327   1      14.150499999999994      40.429999999999993      50.537500000000001
   328   1      14.150499999999994      42.451499999999996      48.515999999999998
   329   1      12.128999999999998      40.429999999999993      52.558999999999997
   330   1      12.128999999999998      42.451499999999996      54.580500000000001
   331   1      14.150499999999994      40.429999999999993      54.580500000000001
   332   1      14.150499999999994      42.451499999999996      52.558999999999997
   333   1      12.128999999999998      40.429999999999993      56.601999999999997
   334   1      12.128999999999998      42.451499999999996      58.623500000000007
   335   1      14.150499999999994      40.429999999999993      58.623500000000007
   336   1      14.150499999999994      42.451499999999996      56.601999999999997
   337   1      12.128999999999998      40.429999999999993      60.644999999999996
   338   1      12.128999999999998      42.451499999999996      62.666500000000006
   339   1      14.150499999999994      40.429999999999993      62.666500000000006
   340   1      14.150499999999994      42.451499999999996      60.644999999999996
   341   1      12.128999999999998      40.429999999999993      64.688000000000002
   342   1      12.128999999999998      42.451499999999996      66.709500000000006
   343   1      14.150499999999994      40.429999999999993      66.709500000000006
   344   1      14.150499999999994      42.451499999999996      64.688000000000002
   345   1      12.128999999999998      42.451499999999996      70.752499999999998
   346   1      14.150499999999994      40.429999999999993      70.752499999999998
   347   1      14.150499999999994      42.451499999999996      68.730999999999995
   348   1      14.150499999999994      42.451499999999996      72.774000000000001
   349   1      14.150499999999994      44.472999999999999      38.408499999999997
   350   1      12.128999999999998      46.494500000000002      42.451499999999996
   351   1      14.150499999999994      44.472999999999999      42.451499999999996
   352   1      14.150499999999994      46.494500000000002      40.429999999999993
   353   1      12.128999999999998      44.472999999999999      44.472999999999999
   354   1      12.128999999999998      46.494500000000002      46.494500000000002
   355   1      14.150499999999994      44.472999999999999      46.494500000000002
   356   1      14.150499999999994      46.494500000000002      44.472999999999999
   357   1      12.128999999999998      44.472999999999999      48.515999999999998
   358   1      12.128999999999998      46.494500000000002      50.537500000000001