model_files/Ni/Ni_30000/Ni_110/data.Ni_110_fcc_31263 (written by ASE) 

31263 	 atoms 
1  atom types
0.0                     107  xlo xhi
0.0                     107  ylo yhi
0.0                     107  zlo zhi


Atoms 

     1   1  7.1054273576010011e-15      51.039999999999992      51.039999999999992
     2   1      1.7600000000000051      49.279999999999994      51.039999999999992
     3   1      1.7600000000000051      51.039999999999992      49.279999999999994
     4   1  7.1054273576010011e-15      51.039999999999992      54.560000000000002
     5   1      1.7600000000000051      49.279999999999994      54.560000000000002
     6   1      1.7600000000000051      51.039999999999992      52.799999999999997
     7   1      1.7600000000000051      51.039999999999992                   56.32
     8   1  7.1054273576010011e-15      54.560000000000002      51.039999999999992
     9   1      1.7600000000000051      52.799999999999997      51.039999999999992
    10   1      1.7600000000000051      54.560000000000002      49.279999999999994
    11   1  7.1054273576010011e-15      52.799999999999997      52.799999999999997
    12   1  7.1054273576010011e-15      54.560000000000002      54.560000000000002
    13   1      1.7600000000000051      52.799999999999997      54.560000000000002
    14   1      1.7600000000000051      54.560000000000002      52.799999999999997
    15   1      1.7600000000000051      54.560000000000002                   56.32
    16   1      1.7600000000000051                   56.32      51.039999999999992
    17   1      1.7600000000000051                   56.32      54.560000000000002
    18   1      3.5200000000000027      47.519999999999996      47.519999999999996
    19   1      5.2800000000000074      45.760000000000005      47.519999999999996
    20   1      5.2800000000000074      47.519999999999996      45.760000000000005
    21   1      3.5200000000000027      47.519999999999996      51.039999999999992
    22   1      5.2800000000000074      45.760000000000005      51.039999999999992
    23   1      5.2800000000000074      47.519999999999996      49.279999999999994
    24   1      3.5200000000000027      47.519999999999996      54.560000000000002
    25   1      5.2800000000000074      45.760000000000005      54.560000000000002
    26   1      5.2800000000000074      47.519999999999996      52.799999999999997
    27   1      3.5200000000000027      47.519999999999996      58.079999999999998
    28   1      5.2800000000000074      45.760000000000005      58.079999999999998
    29   1      5.2800000000000074      47.519999999999996                   56.32
    30   1      5.2800000000000074      47.519999999999996      59.840000000000003
    31   1      3.5200000000000027      51.039999999999992      47.519999999999996
    32   1      5.2800000000000074      49.279999999999994      47.519999999999996
    33   1      5.2800000000000074      51.039999999999992      45.760000000000005
    34   1      3.5200000000000027      49.279999999999994      49.279999999999994
    35   1      3.5200000000000027      51.039999999999992      51.039999999999992
    36   1      5.2800000000000074      49.279999999999994      51.039999999999992
    37   1      5.2800000000000074      51.039999999999992      49.279999999999994
    38   1      3.5200000000000027      49.279999999999994      52.799999999999997
    39   1      3.5200000000000027      51.039999999999992      54.560000000000002
    40   1      5.2800000000000074      49.279999999999994      54.560000000000002
    41   1      5.2800000000000074      51.039999999999992      52.799999999999997
    42   1      3.5200000000000027      49.279999999999994                   56.32
    43   1      3.5200000000000027      51.039999999999992      58.079999999999998
    44   1      5.2800000000000074      49.279999999999994      58.079999999999998
    45   1      5.2800000000000074      51.039999999999992                   56.32
    46   1      5.2800000000000074      51.039999999999992      59.840000000000003
    47   1      3.5200000000000027      54.560000000000002      47.519999999999996
    48   1      5.2800000000000074      52.799999999999997      47.519999999999996
    49   1      5.2800000000000074      54.560000000000002      45.760000000000005
    50   1      3.5200000000000027      52.799999999999997      49.279999999999994
    51   1      3.5200000000000027      54.560000000000002      51.039999999999992
    52   1      5.2800000000000074      52.799999999999997      51.039999999999992
    53   1      5.2800000000000074      54.560000000000002      49.279999999999994
    54   1      3.5200000000000027      52.799999999999997      52.799999999999997
    55   1      3.5200000000000027      54.560000000000002      54.560000000000002
    56   1      5.2800000000000074      52.799999999999997      54.560000000000002
    57   1      5.2800000000000074      54.560000000000002      52.799999999999997
    58   1      3.5200000000000027      52.799999999999997                   56.32
    59   1      3.5200000000000027      54.560000000000002      58.079999999999998
    60   1      5.2800000000000074      52.799999999999997      58.079999999999998
    61   1      5.2800000000000074      54.560000000000002                   56.32
    62   1      5.2800000000000074      54.560000000000002      59.840000000000003
    63   1      3.5200000000000027      58.079999999999998      47.519999999999996
    64   1      5.2800000000000074                   56.32      47.519999999999996
    65   1      5.2800000000000074      58.079999999999998      45.760000000000005
    66   1      3.5200000000000027                   56.32      49.279999999999994
    67   1      3.5200000000000027      58.079999999999998      51.039999999999992
    68   1      5.2800000000000074                   56.32      51.039999999999992
    69   1      5.2800000000000074      58.079999999999998      49.279999999999994
    70   1      3.5200000000000027                   56.32      52.799999999999997
    71   1      3.5200000000000027      58.079999999999998      54.560000000000002
    72   1      5.2800000000000074                   56.32      54.560000000000002
    73   1      5.2800000000000074      58.079999999999998      52.799999999999997
    74   1      3.5200000000000027                   56.32                   56.32
    75   1      3.5200000000000027      58.079999999999998      58.079999999999998
    76   1      5.2800000000000074                   56.32      58.079999999999998
    77   1      5.2800000000000074      58.079999999999998                   56.32
    78   1      5.2800000000000074      58.079999999999998      59.840000000000003
    79   1      5.2800000000000074      59.840000000000003      47.519999999999996
    80   1      5.2800000000000074      59.840000000000003      51.039999999999992
    81   1      5.2800000000000074      59.840000000000003      54.560000000000002
    82   1      5.2800000000000074      59.840000000000003      58.079999999999998
    83   1      7.0400000000000054                      44                      44
    84   1      8.8000000000000025      42.240000000000002                      44
    85   1      8.8000000000000025                      44      42.240000000000002
    86   1      7.0400000000000054                      44      47.519999999999996
    87   1      8.8000000000000025      42.240000000000002      47.519999999999996
    88   1      8.8000000000000025                      44      45.760000000000005
    89   1      7.0400000000000054                      44      51.039999999999992
    90   1      8.8000000000000025      42.240000000000002      51.039999999999992
    91   1      8.8000000000000025                      44      49.279999999999994
    92   1      7.0400000000000054                      44      54.560000000000002
    93   1      8.8000000000000025      42.240000000000002      54.560000000000002
    94   1      8.8000000000000025                      44      52.799999999999997
    95   1      7.0400000000000054                      44      58.079999999999998
    96   1      8.8000000000000025      42.240000000000002      58.079999999999998
    97   1      8.8000000000000025                      44                   56.32
    98   1      7.0400000000000054                      44      61.600000000000001
    99   1      8.8000000000000025      42.240000000000002      61.600000000000001
   100   1      8.8000000000000025                      44      59.840000000000003
   101   1      8.8000000000000025                      44      63.359999999999999
   102   1      7.0400000000000054      47.519999999999996                      44
   103   1      8.8000000000000025      45.760000000000005                      44
   104   1      8.8000000000000025      47.519999999999996      42.240000000000002
   105   1      7.0400000000000054      45.760000000000005      45.760000000000005
   106   1      7.0400000000000054      47.519999999999996      47.519999999999996
   107   1      8.8000000000000025      45.760000000000005      47.519999999999996
   108   1      8.8000000000000025      47.519999999999996      45.760000000000005
   109   1      7.0400000000000054      45.760000000000005      49.279999999999994
   110   1      7.0400000000000054      47.519999999999996      51.039999999999992
   111   1      8.8000000000000025      45.760000000000005      51.039999999999992
   112   1      8.8000000000000025      47.519999999999996      49.279999999999994
   113   1      7.0400000000000054      45.760000000000005      52.799999999999997
   114   1      7.0400000000000054      47.519999999999996      54.560000000000002
   115   1      8.8000000000000025      45.760000000000005      54.560000000000002
   116   1      8.8000000000000025      47.519999999999996      52.799999999999997
   117   1      7.0400000000000054      45.760000000000005                   56.32
   118   1      7.0400000000000054      47.519999999999996      58.079999999999998
   119   1      8.8000000000000025      45.760000000000005      58.079999999999998
   120   1      8.8000000000000025      47.519999999999996                   56.32
   121   1      7.0400000000000054      45.760000000000005      59.840000000000003
   122   1      7.0400000000000054      47.519999999999996      61.600000000000001
   123   1      8.8000000000000025      45.760000000000005      61.600000000000001
   124   1      8.8000000000000025      47.519999999999996      59.840000000000003
   125   1      8.8000000000000025      47.519999999999996      63.359999999999999
   126   1      7.0400000000000054      51.039999999999992                      44
   127   1      8.8000000000000025      49.279999999999994                      44
   128   1      8.8000000000000025      51.039999999999992      42.240000000000002
   129   1      7.0400000000000054      49.279999999999994      45.760000000000005
   130   1      7.0400000000000054      51.039999999999992      47.519999999999996
   131   1      8.8000000000000025      49.279999999999994      47.519999999999996
   132   1      8.8000000000000025      51.039999999999992      45.760000000000005
   133   1      7.0400000000000054      49.279999999999994      49.279999999999994
   134   1      7.0400000000000054      51.039999999999992      51.039999999999992
   135   1      8.8000000000000025      49.279999999999994      51.039999999999992
   136   1      8.8000000000000025      51.039999999999992      49.279999999999994
   137   1      7.0400000000000054      49.279999999999994      52.799999999999997
   138   1      7.0400000000000054      51.039999999999992      54.560000000000002
   139   1      8.8000000000000025      49.279999999999994      54.560000000000002
   140   1      8.8000000000000025      51.039999999999992      52.799999999999997
   141   1      7.0400000000000054      49.279999999999994                   56.32
   142   1      7.0400000000000054      51.039999999999992      58.079999999999998
   143   1      8.8000000000000025      49.279999999999994      58.079999999999998
   144   1      8.8000000000000025      51.039999999999992                   56.32
   145   1      7.0400000000000054      49.279999999999994      59.840000000000003
   146   1      7.0400000000000054      51.039999999999992      61.600000000000001
   147   1      8.8000000000000025      49.279999999999994      61.600000000000001
   148   1      8.8000000000000025      51.039999999999992      59.840000000000003
   149   1      8.8000000000000025      51.039999999999992      63.359999999999999
   150   1      7.0400000000000054      54.560000000000002                      44
   151   1      8.8000000000000025      52.799999999999997                      44
   152   1      8.8000000000000025      54.560000000000002      42.240000000000002
   153   1      7.0400000000000054      52.799999999999997      45.760000000000005
   154   1      7.0400000000000054      54.560000000000002      47.519999999999996
   155   1      8.8000000000000025      52.799999999999997      47.519999999999996
   156   1      8.8000000000000025      54.560000000000002      45.760000000000005
   157   1      7.0400000000000054      52.799999999999997      49.279999999999994
   158   1      7.0400000000000054      54.560000000000002      51.039999999999992
   159   1      8.8000000000000025      52.799999999999997      51.039999999999992
   160   1      8.8000000000000025      54.560000000000002      49.279999999999994
   161   1      7.0400000000000054      52.799999999999997      52.799999999999997
   162   1      7.0400000000000054      54.560000000000002      54.560000000000002
   163   1      8.8000000000000025      52.799999999999997      54.560000000000002
   164   1      8.8000000000000025      54.560000000000002      52.799999999999997
   165   1      7.0400000000000054      52.799999999999997                   56.32
   166   1      7.0400000000000054      54.560000000000002      58.079999999999998
   167   1      8.8000000000000025      52.799999999999997      58.079999999999998
   168   1      8.8000000000000025      54.560000000000002                   56.32
   169   1      7.0400000000000054      52.799999999999997      59.840000000000003
   170   1      7.0400000000000054      54.560000000000002      61.600000000000001
   171   1      8.8000000000000025      52.799999999999997      61.600000000000001
   172   1      8.8000000000000025      54.560000000000002      59.840000000000003
   173   1      8.8000000000000025      54.560000000000002      63.359999999999999
   174   1      7.0400000000000054      58.079999999999998                      44
   175   1      8.8000000000000025                   56.32                      44
   176   1      8.8000000000000025      58.079999999999998      42.240000000000002
   177   1      7.0400000000000054                   56.32      45.760000000000005
   178   1      7.0400000000000054      58.079999999999998      47.519999999999996
   179   1      8.8000000000000025                   56.32      47.519999999999996
   180   1      8.8000000000000025      58.079999999999998      45.760000000000005
   181   1      7.0400000000000054                   56.32      49.279999999999994
   182   1      7.0400000000000054      58.079999999999998      51.039999999999992
   183   1      8.8000000000000025                   56.32      51.039999999999992
   184   1      8.8000000000000025      58.079999999999998      49.279999999999994
   185   1      7.0400000000000054                   56.32      52.799999999999997
   186   1      7.0400000000000054      58.079999999999998      54.560000000000002
   187   1      8.8000000000000025                   56.32      54.560000000000002
   188   1      8.8000000000000025      58.079999999999998      52.799999999999997
   189   1      7.0400000000000054                   56.32                   56.32
   190   1      7.0400000000000054      58.079999999999998      58.079999999999998
   191   1      8.8000000000000025                   56.32      58.079999999999998
   192   1      8.8000000000000025      58.079999999999998                   56.32
   193   1      7.0400000000000054                   56.32      59.840000000000003
   194   1      7.0400000000000054      58.079999999999998      61.600000000000001
   195   1      8.8000000000000025                   56.32      61.600000000000001
   196   1      8.8000000000000025      58.079999999999998      59.840000000000003
   197   1      8.8000000000000025      58.079999999999998      63.359999999999999
   198   1      7.0400000000000054      61.600000000000001                      44
   199   1      8.8000000000000025      59.840000000000003                      44
   200   1      8.8000000000000025      61.600000000000001      42.240000000000002
   201   1      7.0400000000000054      59.840000000000003      45.760000000000005
   202   1      7.0400000000000054      61.600000000000001      47.519999999999996
   203   1      8.8000000000000025      59.840000000000003      47.519999999999996
   204   1      8.8000000000000025      61.600000000000001      45.760000000000005
   205   1      7.0400000000000054      59.840000000000003      49.279999999999994
   206   1      7.0400000000000054      61.600000000000001      51.039999999999992
   207   1      8.8000000000000025      59.840000000000003      51.039999999999992
   208   1      8.8000000000000025      61.600000000000001      49.279999999999994
   209   1      7.0400000000000054      59.840000000000003      52.799999999999997
   210   1      7.0400000000000054      61.600000000000001      54.560000000000002
   211   1      8.8000000000000025      59.840000000000003      54.560000000000002
   212   1      8.8000000000000025      61.600000000000001      52.799999999999997
   213   1      7.0400000000000054      59.840000000000003                   56.32
   214   1      7.0400000000000054      61.600000000000001      58.079999999999998
   215   1      8.8000000000000025      59.840000000000003      58.079999999999998
   216   1      8.8000000000000025      61.600000000000001                   56.32
   217   1      7.0400000000000054      59.840000000000003      59.840000000000003
   218   1      7.0400000000000054      61.600000000000001      61.600000000000001
   219   1      8.8000000000000025      59.840000000000003      61.600000000000001
   220   1      8.8000000000000025      61.600000000000001      59.840000000000003
   221   1      8.8000000000000025      61.600000000000001      63.359999999999999
   222   1      8.8000000000000025      63.359999999999999                      44
   223   1      8.8000000000000025      63.359999999999999      47.519999999999996
   224   1      8.8000000000000025      63.359999999999999      51.039999999999992
   225   1      8.8000000000000025      63.359999999999999      54.560000000000002
   226   1      8.8000000000000025      63.359999999999999      58.079999999999998
   227   1      8.8000000000000025      63.359999999999999      61.600000000000001
   228   1      10.560000000000002      40.479999999999997      40.479999999999997
   229   1      12.319999999999999      38.719999999999999      40.479999999999997
   230   1      12.319999999999999      40.479999999999997      38.719999999999999
   231   1      10.560000000000002      40.479999999999997                      44
   232   1      12.319999999999999      38.719999999999999                      44
   233   1      12.319999999999999      40.479999999999997      42.240000000000002
   234   1      10.560000000000002      40.479999999999997      47.519999999999996
   235   1      12.319999999999999      38.719999999999999      47.519999999999996
   236   1      12.319999999999999      40.479999999999997      45.760000000000005
   237   1      10.560000000000002      40.479999999999997      51.039999999999992
   238   1      12.319999999999999      38.719999999999999      51.039999999999992
   239   1      12.319999999999999      40.479999999999997      49.279999999999994
   240   1      10.560000000000002      40.479999999999997      54.560000000000002
   241   1      12.319999999999999      38.719999999999999      54.560000000000002
   242   1      12.319999999999999      40.479999999999997      52.799999999999997
   243   1      10.560000000000002      40.479999999999997      58.079999999999998
   244   1      12.319999999999999      38.719999999999999      58.079999999999998
   245   1      12.319999999999999      40.479999999999997                   56.32
   246   1      10.560000000000002      40.479999999999997      61.600000000000001
   247   1      12.319999999999999      38.719999999999999      61.600000000000001
   248   1      12.319999999999999      40.479999999999997      59.840000000000003
   249   1      10.560000000000002      40.479999999999997       65.11999999999999
   250   1      12.319999999999999      38.719999999999999       65.11999999999999
   251   1      12.319999999999999      40.479999999999997      63.359999999999999
   252   1      12.319999999999999      40.479999999999997       66.88000000000001
   253   1      10.560000000000002                      44      40.479999999999997
   254   1      12.319999999999999      42.240000000000002      40.479999999999997
   255   1      12.319999999999999                      44      38.719999999999999
   256   1      10.560000000000002      42.240000000000002      42.240000000000002
   257   1      10.560000000000002                      44                      44
   258   1      12.319999999999999      42.240000000000002                      44
   259   1      12.319999999999999                      44      42.240000000000002
   260   1      10.560000000000002      42.240000000000002      45.760000000000005
   261   1      10.560000000000002                      44      47.519999999999996
   262   1      12.319999999999999      42.240000000000002      47.519999999999996
   263   1      12.319999999999999                      44      45.760000000000005
   264   1      10.560000000000002      42.240000000000002      49.279999999999994
   265   1      10.560000000000002                      44      51.039999999999992
   266   1      12.319999999999999      42.240000000000002      51.039999999999992
   267   1      12.319999999999999                      44      49.279999999999994
   268   1      10.560000000000002      42.240000000000002      52.799999999999997
   269   1      10.560000000000002                      44      54.560000000000002
   270   1      12.319999999999999      42.240000000000002      54.560000000000002
   271   1      12.319999999999999                      44      52.799999999999997
   272   1      10.560000000000002      42.240000000000002                   56.32
   273   1      10.560000000000002                      44      58.079999999999998
   274   1      12.319999999999999      42.240000000000002      58.079999999999998
   275   1      12.319999999999999                      44                   56.32
   276   1      10.560000000000002      42.240000000000002      59.840000000000003
   277   1      10.560000000000002                      44      61.600000000000001
   278   1      12.319999999999999      42.240000000000002      61.600000000000001
   279   1      12.319999999999999                      44      59.840000000000003
   280   1      10.560000000000002      42.240000000000002      63.359999999999999
   281   1      10.560000000000002                      44       65.11999999999999
   282   1      12.319999999999999      42.240000000000002       65.11999999999999
   283   1      12.319999999999999                      44      63.359999999999999
   284   1      12.319999999999999                      44       66.88000000000001
   285   1      10.560000000000002      47.519999999999996      40.479999999999997
   286   1      12.319999999999999      45.760000000000005      40.479999999999997
   287   1      12.319999999999999      47.519999999999996      38.719999999999999
   288   1      10.560000000000002      45.760000000000005      42.240000000000002
   289   1      10.560000000000002      47.519999999999996                      44
   290   1      12.319999999999999      45.760000000000005                      44
   291   1      12.319999999999999      47.519999999999996      42.240000000000002
   292   1      10.560000000000002      45.760000000000005      45.760000000000005
   293   1      10.560000000000002      47.519999999999996      47.519999999999996
   294   1      12.319999999999999      45.760000000000005      47.519999999999996
   295   1      12.319999999999999      47.519999999999996      45.760000000000005
   296   1      10.560000000000002      45.760000000000005      49.279999999999994
   297   1      10.560000000000002      47.519999999999996      51.039999999999992
   298   1      12.319999999999999      45.760000000000005      51.039999999999992
   299   1      12.319999999999999      47.519999999999996      49.279999999999994
   300   1      10.560000000000002      45.760000000000005      52.799999999999997
   301   1      10.560000000000002      47.519999999999996      54.560000000000002
   302   1      12.319999999999999      45.760000000000005      54.560000000000002
   303   1      12.319999999999999      47.519999999999996      52.799999999999997
   304   1      10.560000000000002      45.760000000000005                   56.32
   305   1      10.560000000000002      47.519999999999996      58.079999999999998
   306   1      12.319999999999999      45.760000000000005      58.079999999999998
   307   1      12.319999999999999      47.519999999999996                   56.32
   308   1      10.560000000000002      45.760000000000005      59.840000000000003
   309   1      10.560000000000002      47.519999999999996      61.600000000000001
   310   1      12.319999999999999      45.760000000000005      61.600000000000001
   311   1      12.319999999999999      47.519999999999996      59.840000000000003
   312   1      10.560000000000002      45.760000000000005      63.359999999999999
   313   1      10.560000000000002      47.519999999999996       65.11999999999999
   314   1      12.319999999999999      45.760000000000005       65.11999999999999
   315   1      12.319999999999999      47.519999999999996      63.359999999999999
   316   1      12.319999999999999      47.519999999999996       66.88000000000001
   317   1      10.560000000000002      51.039999999999992      40.479999999999997
   318   1      12.319999999999999      49.279999999999994      40.479999999999997
   319   1      12.319999999999999      51.039999999999992      38.719999999999999
   320   1      10.560000000000002      49.279999999999994      42.240000000000002
   321   1      10.560000000000002      51.039999999999992                      44
   322   1      12.319999999999999      49.279999999999994                      44
   323   1      12.319999999999999      51.039999999999992      42.240000000000002
   324   1      10.560000000000002      49.279999999999994      45.760000000000005
   325   1      10.560000000000002      51.039999999999992      47.519999999999996
   326   1      12.319999999999999      49.279999999999994      47.519999999999996
   327   1      12.319999999999999      51.039999999999992      45.760000000000005
   328   1      10.560000000000002      49.279999999999994      49.279999999999994
   329   1      10.560000000000002      51.039999999999992      51.039999999999992
   330   1      12.319999999999999      49.279999999999994      51.039999999999992
   331   1      12.319999999999999      51.039999999999992      49.279999999999994
   332   1      10.560000000000002      49.279999999999994      52.799999999999997
   333   1      10.560000000000002      51.039999999999992      54.560000000000002
   334   1      12.319999999999999      49.279999999999994      54.560000000000002
   335   1      12.319999999999999      51.039999999999992      52.799999999999997
   336   1      10.560000000000002      49.279999999999994                   56.32
   337   1      10.560000000000002      51.039999999999992      58.079999999999998
   338   1      12.319999999999999      49.279999999999994      58.079999999999998
   339   1      12.319999999999999      51.039999999999992                   56.32
   340   1      10.560000000000002      49.279999999999994      59.840000000000003
   341   1      10.560000000000002      51.039999999999992      61.600000000000001
   342   1      12.319999999999999      49.279999999999994      61.600000000000001
   343   1      12.319999999999999      51.039999999999992      59.840000000000003
   344   1      10.560000000000002      49.279999999999994      63.359999999999999
   345   1      10.560000000000002      51.039999999999992       65.11999999999999
   346   1      12.319999999999999      49.279999999999994       65.11999999999999
   347   1      12.319999999999999      51.039999999999992      63.359999999999999
   348   1      12.319999999999999      51.039999999999992       66.88000000000001
   349   1      10.560000000000002      54.560000000000002      40.479999999999997
   350   1      12.319999999999999      52.799999999999997      40.479999999999997
   351   1      12.319999999999999      54.560000000000002      38.719999999999999
   352   1      10.560000000000002      52.799999999999997      42.240000000000002
   353   1      10.560000000000002      54.560000000000002                      44
   354   1      12.319999999999999      52.799999999999997                      44
   355   1      12.319999999999999      54.560000000000002      42.240000000000002
   356   1      10.560000000000002      52.799999999999997      45.760000000000005
   357   1      10.560000000000002      54.560000000000002      47.519999999999996
   358   1      12.319999999999999      52.799999999999997      47.519999999999996