LAMMPS data file via write_data, version 30 Nov 2020, timestep = 0

29831 atoms
5 atom types

0 92 xlo xhi
0 92 ylo yhi
0 92 zlo zhi

Masses

1 58.7
2 55.8
3 52
4 59
5 63

Atoms # atomic

1 3 7.105427357601002e-15 44.625 44.625 0 0 0
2 2 1.7850000000000037 42.84 44.625 0 0 0
3 1 1.7850000000000037 44.625 42.84 0 0 0
18 3 5.355000000000004 35.7 37.485 0 0 0
19 4 5.355000000000004 37.485 35.7 0 0 0
20 3 5.355000000000004 35.7 41.055 0 0 0
21 5 5.355000000000004 37.485 39.27 0 0 0
22 2 5.355000000000004 35.7 44.625 0 0 0
23 4 5.355000000000004 37.485 42.84 0 0 0
31 4 5.355000000000004 39.27 37.485 0 0 0
32 2 5.355000000000004 41.055 35.7 0 0 0
33 3 3.5700000000000074 39.27 39.27 0 0 0
34 3 3.5700000000000074 41.055 41.055 0 0 0
35 2 5.355000000000004 39.27 41.055 0 0 0
36 5 5.355000000000004 41.055 39.27 0 0 0
37 5 3.5700000000000074 39.27 42.84 0 0 0
38 5 3.5700000000000074 41.055 44.625 0 0 0
39 5 5.355000000000004 39.27 44.625 0 0 0
40 2 5.355000000000004 41.055 42.84 0 0 0
53 1 5.355000000000004 42.84 37.485 0 0 0
54 5 5.355000000000004 44.625 35.7 0 0 0
55 2 3.5700000000000074 42.84 39.27 0 0 0
56 4 3.5700000000000074 44.625 41.055 0 0 0
57 5 5.355000000000004 42.84 41.055 0 0 0
58 1 5.355000000000004 44.625 39.27 0 0 0
59 3 3.5700000000000074 42.84 42.84 0 0 0
60 2 3.5700000000000074 44.625 44.625 0 0 0
61 5 5.355000000000004 42.84 44.625 0 0 0
62 1 5.355000000000004 44.625 42.84 0 0 0
143 3 8.925000000000004 30.345 32.13 0 0 0
144 2 8.925000000000004 30.345 35.7 0 0 0
145 2 8.925000000000004 30.345 39.27 0 0 0
146 3 8.925000000000004 30.345 42.84 0 0 0
152 5 8.925000000000004 32.13 30.345 0 0 0
153 1 7.140000000000008 33.915 33.915 0 0 0
154 1 8.925000000000004 32.13 33.915 0 0 0
155 2 8.925000000000004 33.915 32.13 0 0 0
156 4 7.140000000000008 33.915 37.485 0 0 0
157 3 8.925000000000004 32.13 37.485 0 0 0
158 4 8.925000000000004 33.915 35.7 0 0 0
159 2 7.140000000000008 33.915 41.055 0 0 0
160 4 8.925000000000004 32.13 41.055 0 0 0
161 4 8.925000000000004 33.915 39.27 0 0 0
162 1 7.140000000000008 33.915 44.625 0 0 0
163 1 8.925000000000004 32.13 44.625 0 0 0
164 5 8.925000000000004 33.915 42.84 0 0 0
179 3 8.925000000000004 35.7 30.345 0 0 0
180 3 7.140000000000008 37.485 33.915 0 0 0
181 5 8.925000000000004 35.7 33.915 0 0 0
182 2 8.925000000000004 37.485 32.13 0 0 0
183 2 7.140000000000008 35.7 35.7 0 0 0
184 3 7.140000000000008 37.485 37.485 0 0 0
185 4 8.925000000000004 35.7 37.485 0 0 0
186 2 8.925000000000004 37.485 35.7 0 0 0
187 1 7.140000000000008 35.7 39.27 0 0 0
188 4 7.140000000000008 37.485 41.055 0 0 0
189 3 8.925000000000004 35.7 41.055 0 0 0
190 2 8.925000000000004 37.485 39.27 0 0 0
191 2 7.140000000000008 35.7 42.84 0 0 0
192 3 7.140000000000008 37.485 44.625 0 0 0
193 2 8.925000000000004 35.7 44.625 0 0 0
194 5 8.925000000000004 37.485 42.84 0 0 0
213 3 8.925000000000004 39.27 30.345 0 0 0
214 4 7.140000000000008 41.055 33.915 0 0 0
215 1 8.925000000000004 39.27 33.915 0 0 0
216 1 8.925000000000004 41.055 32.13 0 0 0
217 5 7.140000000000008 39.27 35.7 0 0 0
218 3 7.140000000000008 41.055 37.485 0 0 0
219 1 8.925000000000004 39.27 37.485 0 0 0
220 4 8.925000000000004 41.055 35.7 0 0 0
221 3 7.140000000000008 39.27 39.27 0 0 0
222 5 7.140000000000008 41.055 41.055 0 0 0
223 5 8.925000000000004 39.27 41.055 0 0 0
224 1 8.925000000000004 41.055 39.27 0 0 0
225 5 7.140000000000008 39.27 42.84 0 0 0
226 1 7.140000000000008 41.055 44.625 0 0 0
227 4 8.925000000000004 39.27 44.625 0 0 0
228 2 8.925000000000004 41.055 42.84 0 0 0
247 2 8.925000000000004 42.84 30.345 0 0 0
248 3 7.140000000000008 44.625 33.915 0 0 0
249 3 8.925000000000004 42.84 33.915 0 0 0
250 4 8.925000000000004 44.625 32.13 0 0 0
251 2 7.140000000000008 42.84 35.7 0 0 0
252 2 7.140000000000008 44.625 37.485 0 0 0
253 2 8.925000000000004 42.84 37.485 0 0 0
254 1 8.925000000000004 44.625 35.7 0 0 0
255 1 7.140000000000008 42.84 39.27 0 0 0
256 1 7.140000000000008 44.625 41.055 0 0 0
257 2 8.925000000000004 42.84 41.055 0 0 0
258 2 8.925000000000004 44.625 39.27 0 0 0
259 2 7.140000000000008 42.84 42.84 0 0 0
260 3 7.140000000000008 44.625 44.625 0 0 0
261 1 8.925000000000004 42.84 44.625 0 0 0
262 3 8.925000000000004 44.625 42.84 0 0 0
436 5 10.710000000000008 26.775000000000006 26.775000000000006 0 0 0
437 5 12.495000000000005 24.990000000000002 26.775000000000006 0 0 0
438 4 12.495000000000005 26.775000000000006 24.990000000000002 0 0 0
439 1 10.710000000000008 26.775000000000006 30.345 0 0 0
440 2 12.495000000000005 24.990000000000002 30.345 0 0 0
441 2 12.495000000000005 26.775000000000006 28.560000000000002 0 0 0
442 4 10.710000000000008 26.775000000000006 33.915 0 0 0
443 5 12.495000000000005 24.990000000000002 33.915 0 0 0
444 5 12.495000000000005 26.775000000000006 32.13 0 0 0
445 4 10.710000000000008 26.775000000000006 37.485 0 0 0
446 4 12.495000000000005 24.990000000000002 37.485 0 0 0
447 5 12.495000000000005 26.775000000000006 35.7 0 0 0
448 4 10.710000000000008 26.775000000000006 41.055 0 0 0
449 5 12.495000000000005 24.990000000000002 41.055 0 0 0
450 2 12.495000000000005 26.775000000000006 39.27 0 0 0
451 1 10.710000000000008 26.775000000000006 44.625 0 0 0
452 5 12.495000000000005 24.990000000000002 44.625 0 0 0
453 1 12.495000000000005 26.775000000000006 42.84 0 0 0
473 2 10.710000000000008 30.345 26.775000000000006 0 0 0
474 5 12.495000000000005 28.560000000000002 26.775000000000006 0 0 0
475 2 12.495000000000005 30.345 24.990000000000002 0 0 0
476 1 10.710000000000008 28.560000000000002 28.560000000000002 0 0 0
477 4 10.710000000000008 30.345 30.345 0 0 0
478 3 12.495000000000005 28.560000000000002 30.345 0 0 0
479 3 12.495000000000005 30.345 28.560000000000002 0 0 0
480 4 10.710000000000008 28.560000000000002 32.13 0 0 0
481 2 10.710000000000008 30.345 33.915 0 0 0
482 2 12.495000000000005 28.560000000000002 33.915 0 0 0
483 3 12.495000000000005 30.345 32.13 0 0 0
484 1 10.710000000000008 28.560000000000002 35.7 0 0 0
485 4 10.710000000000008 30.345 37.485 0 0 0
486 2 12.495000000000005 28.560000000000002 37.485 0 0 0
487 2 12.495000000000005 30.345 35.7 0 0 0
488 5 10.710000000000008 28.560000000000002 39.27 0 0 0
489 5 10.710000000000008 30.345 41.055 0 0 0
490 5 12.495000000000005 28.560000000000002 41.055 0 0 0
491 5 12.495000000000005 30.345 39.27 0 0 0
492 4 10.710000000000008 28.560000000000002 42.84 0 0 0
493 4 10.710000000000008 30.345 44.625 0 0 0
494 3 12.495000000000005 28.560000000000002 44.625 0 0 0
495 1 12.495000000000005 30.345 42.84 0 0 0
521 5 10.710000000000008 33.915 26.775000000000006 0 0 0
522 3 12.495000000000005 32.13 26.775000000000006 0 0 0
523 5 12.495000000000005 33.915 24.990000000000002 0 0 0
524 2 10.710000000000008 32.13 28.560000000000002 0 0 0
525 5 10.710000000000008 33.915 30.345 0 0 0
526 1 12.495000000000005 32.13 30.345 0 0 0
527 2 12.495000000000005 33.915 28.560000000000002 0 0 0
528 2 10.710000000000008 32.13 32.13 0 0 0
529 4 10.710000000000008 33.915 33.915 0 0 0
530 5 12.495000000000005 32.13 33.915 0 0 0
531 2 12.495000000000005 33.915 32.13 0 0 0
532 2 10.710000000000008 32.13 35.7 0 0 0
533 2 10.710000000000008 33.915 37.485 0 0 0
534 1 12.495000000000005 32.13 37.485 0 0 0
535 3 12.495000000000005 33.915 35.7 0 0 0
536 3 10.710000000000008 32.13 39.27 0 0 0
537 4 10.710000000000008 33.915 41.055 0 0 0
538 3 12.495000000000005 32.13 41.055 0 0 0
539 4 12.495000000000005 33.915 39.27 0 0 0
540 1 10.710000000000008 32.13 42.84 0 0 0
541 3 10.710000000000008 33.915 44.625 0 0 0
542 4 12.495000000000005 32.13 44.625 0 0 0
543 1 12.495000000000005 33.915 42.84 0 0 0
569 4 10.710000000000008 37.485 26.775000000000006 0 0 0
570 4 12.495000000000005 35.7 26.775000000000006 0 0 0
571 4 12.495000000000005 37.485 24.990000000000002 0 0 0
572 5 10.710000000000008 35.7 28.560000000000002 0 0 0
573 2 10.710000000000008 37.485 30.345 0 0 0
574 1 12.495000000000005 35.7 30.345 0 0 0
575 3 12.495000000000005 37.485 28.560000000000002 0 0 0
576 5 10.710000000000008 35.7 32.13 0 0 0
577 4 10.710000000000008 37.485 33.915 0 0 0
578 3 12.495000000000005 35.7 33.915 0 0 0
579 2 12.495000000000005 37.485 32.13 0 0 0
580 5 10.710000000000008 35.7 35.7 0 0 0
581 5 10.710000000000008 37.485 37.485 0 0 0
582 5 12.495000000000005 35.7 37.485 0 0 0
583 2 12.495000000000005 37.485 35.7 0 0 0
584 1 10.710000000000008 35.7 39.27 0 0 0
585 1 10.710000000000008 37.485 41.055 0 0 0
586 2 12.495000000000005 35.7 41.055 0 0 0
587 5 12.495000000000005 37.485 39.27 0 0 0
588 3 10.710000000000008 35.7 42.84 0 0 0
589 1 10.710000000000008 37.485 44.625 0 0 0
590 5 12.495000000000005 35.7 44.625 0 0 0
591 1 12.495000000000005 37.485 42.84 0 0 0
617 2 10.710000000000008 41.055 26.775000000000006 0 0 0
618 2 12.495000000000005 39.27 26.775000000000006 0 0 0
619 1 12.495000000000005 41.055 24.990000000000002 0 0 0
620 1 10.710000000000008 39.27 28.560000000000002 0 0 0
621 1 10.710000000000008 41.055 30.345 0 0 0
622 2 12.495000000000005 39.27 30.345 0 0 0
623 1 12.495000000000005 41.055 28.560000000000002 0 0 0
624 4 10.710000000000008 39.27 32.13 0 0 0
625 5 10.710000000000008 41.055 33.915 0 0 0
626 5 12.495000000000005 39.27 33.915 0 0 0
627 5 12.495000000000005 41.055 32.13 0 0 0
628 2 10.710000000000008 39.27 35.7 0 0 0
629 5 10.710000000000008 41.055 37.485 0 0 0
630 1 12.495000000000005 39.27 37.485 0 0 0
631 2 12.495000000000005 41.055 35.7 0 0 0
632 2 10.710000000000008 39.27 39.27 0 0 0
633 2 10.710000000000008 41.055 41.055 0 0 0
634 5 12.495000000000005 39.27 41.055 0 0 0
635 5 12.495000000000005 41.055 39.27 0 0 0
636 2 10.710000000000008 39.27 42.84 0 0 0
637 3 10.710000000000008 41.055 44.625 0 0 0
638 3 12.495000000000005 39.27 44.625 0 0 0
639 2 12.495000000000005 41.055 42.84 0 0 0
665 3 10.710000000000008 44.625 26.775000000000006 0 0 0
666 3 12.495000000000005 42.84 26.775000000000006 0 0 0
667 2 12.495000000000005 44.625 24.990000000000002 0 0 0
668 1 10.710000000000008 42.84 28.560000000000002 0 0 0
669 5 10.710000000000008 44.625 30.345 0 0 0
670 2 12.495000000000005 42.84 30.345 0 0 0
671 5 12.495000000000005 44.625 28.560000000000002 0 0 0
672 1 10.710000000000008 42.84 32.13 0 0 0
673 4 10.710000000000008 44.625 33.915 0 0 0
674 5 12.495000000000005 42.84 33.915 0 0 0
675 3 12.495000000000005 44.625 32.13 0 0 0
676 4 10.710000000000008 42.84 35.7 0 0 0
677 1 10.710000000000008 44.625 37.485 0 0 0
678 1 12.495000000000005 42.84 37.485 0 0 0
679 2 12.495000000000005 44.625 35.7 0 0 0
680 5 10.710000000000008 42.84 39.27 0 0 0
681 5 10.710000000000008 44.625 41.055 0 0 0
682 5 12.495000000000005 42.84 41.055 0 0 0
683 4 12.495000000000005 44.625 39.27 0 0 0
684 1 10.710000000000008 42.84 42.84 0 0 0
685 4 10.710000000000008 44.625 44.625 0 0 0
686 2 12.495000000000005 42.84 44.625 0 0 0
687 1 12.495000000000005 44.625 42.84 0 0 0
1013 5 16.065000000000005 17.850000000000005 19.635000000000005 0 0 0
1014 3 16.065000000000005 19.635000000000005 17.850000000000005 0 0 0
1015 3 16.065000000000005 17.850000000000005 23.205000000000005 0 0 0
1016 5 16.065000000000005 19.635000000000005 21.420000000000005 0 0 0
1017 1 16.065000000000005 17.850000000000005 26.775000000000006 0 0 0
1018 1 16.065000000000005 19.635000000000005 24.990000000000002 0 0 0
1019 4 16.065000000000005 17.850000000000005 30.345 0 0 0
1020 2 16.065000000000005 19.635000000000005 28.560000000000002 0 0 0
1021 2 16.065000000000005 17.850000000000005 33.915 0 0 0
1022 3 16.065000000000005 19.635000000000005 32.13 0 0 0
1023 2 16.065000000000005 17.850000000000005 37.485 0 0 0
1024 1 16.065000000000005 19.635000000000005 35.7 0 0 0
1025 4 16.065000000000005 17.850000000000005 41.055 0 0 0
1026 5 16.065000000000005 19.635000000000005 39.27 0 0 0
1027 1 16.065000000000005 17.850000000000005 44.625 0 0 0
1028 4 16.065000000000005 19.635000000000005 42.84 0 0 0
1046 5 16.065000000000005 21.420000000000005 19.635000000000005 0 0 0
1047 2 16.065000000000005 23.205000000000005 17.850000000000005 0 0 0
1048 2 14.280000000000008 21.420000000000005 21.420000000000005 0 0 0
1049 4 14.280000000000008 23.205000000000005 23.205000000000005 0 0 0
1050 4 16.065000000000005 21.420000000000005 23.205000000000005 0 0 0
1051 5 16.065000000000005 23.205000000000005 21.420000000000005 0 0 0
1052 4 14.280000000000008 21.420000000000005 24.990000000000002 0 0 0
1053 5 14.280000000000008 23.205000000000005 26.775000000000006 0 0 0
1054 5 16.065000000000005 21.420000000000005 26.775000000000006 0 0 0
1055 3 16.065000000000005 23.205000000000005 24.990000000000002 0 0 0
1056 3 14.280000000000008 21.420000000000005 28.560000000000002 0 0 0
1057 1 14.280000000000008 23.205000000000005 30.345 0 0 0
1058 5 16.065000000000005 21.420000000000005 30.345 0 0 0
1059 3 16.065000000000005 23.205000000000005 28.560000000000002 0 0 0
1060 2 14.280000000000008 21.420000000000005 32.13 0 0 0
1061 3 14.280000000000008 23.205000000000005 33.915 0 0 0
1062 2 16.065000000000005 21.420000000000005 33.915 0 0 0
1063 3 16.065000000000005 23.205000000000005 32.13 0 0 0
1064 1 14.280000000000008 21.420000000000005 35.7 0 0 0
1065 2 14.280000000000008 23.205000000000005 37.485 0 0 0
1066 2 16.065000000000005 21.420000000000005 37.485 0 0 0
1067 4 16.065000000000005 23.205000000000005 35.7 0 0 0
1068 1 14.280000000000008 21.420000000000005 39.27 0 0 0
1069 1 14.280000000000008 23.205000000000005 41.055 0 0 0
1070 1 16.065000000000005 21.420000000000005 41.055 0 0 0
1071 5 16.065000000000005 23.205000000000005 39.27 0 0 0
1072 5 14.280000000000008 21.420000000000005 42.84 0 0 0
1073 5 14.280000000000008 23.205000000000005 44.625 0 0 0
1074 4 16.065000000000005 21.420000000000005 44.625 0 0 0
1075 4 16.065000000000005 23.205000000000005 42.84 0 0 0
1108 5 16.065000000000005 24.990000000000002 19.635000000000005 0 0 0
1109 2 16.065000000000005 26.775000000000006 17.850000000000005 0 0 0
1110 1 14.280000000000008 24.990000000000002 21.420000000000005 0 0 0
1111 5 14.280000000000008 26.775000000000006 23.205000000000005 0 0 0
1112 3 16.065000000000005 24.990000000000002 23.205000000000005 0 0 0
1113 1 16.065000000000005 26.775000000000006 21.420000000000005 0 0 0
1114 4 14.280000000000008 24.990000000000002 24.990000000000002 0 0 0
1115 4 14.280000000000008 26.775000000000006 26.775000000000006 0 0 0
1116 5 16.065000000000005 24.990000000000002 26.775000000000006 0 0 0
1117 5 16.065000000000005 26.775000000000006 24.990000000000002 0 0 0
1118 2 14.280000000000008 24.990000000000002 28.560000000000002 0 0 0
1119 3 14.280000000000008 26.775000000000006 30.345 0 0 0
1120 2 16.065000000000005 24.990000000000002 30.345 0 0 0
1121 5 16.065000000000005 26.775000000000006 28.560000000000002 0 0 0
1122 5 14.280000000000008 24.990000000000002 32.13 0 0 0
1123 3 14.280000000000008 26.775000000000006 33.915 0 0 0
1124 2 16.065000000000005 24.990000000000002 33.915 0 0 0
1125 4 16.065000000000005 26.775000000000006 32.13 0 0 0
1126 3 14.280000000000008 24.990000000000002 35.7 0 0 0
1127 3 14.280000000000008 26.775000000000006 37.485 0 0 0
1128 4 16.065000000000005 24.990000000000002 37.485 0 0 0
1129 2 16.065000000000005 26.775000000000006 35.7 0 0 0
1130 1 14.280000000000008 24.990000000000002 39.27 0 0 0
1131 1 14.280000000000008 26.775000000000006 41.055 0 0 0
1132 1 16.065000000000005 24.990000000000002 41.055 0 0 0
1133 5 16.065000000000005 26.775000000000006 39.27 0 0 0
1134 4 14.280000000000008 24.990000000000002 42.84 0 0 0
1135 1 14.280000000000008 26.775000000000006 44.625 0 0 0
1136 4 16.065000000000005 24.990000000000002 44.625 0 0 0
1137 2 16.065000000000005 26.775000000000006 42.84 0 0 0
1170 5 16.065000000000005 28.560000000000002 19.635000000000005 0 0 0
1171 4 16.065000000000005 30.345 17.850000000000005 0 0 0
1172 5 14.280000000000008 28.560000000000002 21.420000000000005 0 0 0
1173 1 14.280000000000008 30.345 23.205000000000005 0 0 0
1174 2 16.065000000000005 28.560000000000002 23.205000000000005 0 0 0
1175 5 16.065000000000005 30.345 21.420000000000005 0 0 0
1176 2 14.280000000000008 28.560000000000002 24.990000000000002 0 0 0
1177 4 14.280000000000008 30.345 26.775000000000006 0 0 0
1178 4 16.065000000000005 28.560000000000002 26.775000000000006 0 0 0
1179 4 16.065000000000005 30.345 24.990000000000002 0 0 0
1180 1 14.280000000000008 28.560000000000002 28.560000000000002 0 0 0
1181 3 14.280000000000008 30.345 30.345 0 0 0
1182 4 16.065000000000005 28.560000000000002 30.345 0 0 0
1183 5 16.065000000000005 30.345 28.560000000000002 0 0 0
1184 5 14.280000000000008 28.560000000000002 32.13 0 0 0
1185 2 14.280000000000008 30.345 33.915 0 0 0
1186 2 16.065000000000005 28.560000000000002 33.915 0 0 0
1187 5 16.065000000000005 30.345 32.13 0 0 0
1188 5 14.280000000000008 28.560000000000002 35.7 0 0 0
1189 5 14.280000000000008 30.345 37.485 0 0 0
1190 1 16.065000000000005 28.560000000000002 37.485 0 0 0
1191 1 16.065000000000005 30.345 35.7 0 0 0
1192 5 14.280000000000008 28.560000000000002 39.27 0 0 0
1193 4 14.280000000000008 30.345 41.055 0 0 0
1194 4 16.065000000000005 28.560000000000002 41.055 0 0 0
1195 4 16.065000000000005 30.345 39.27 0 0 0
1196 4 14.280000000000008 28.560000000000002 42.84 0 0 0
1197 2 14.280000000000008 30.345 44.625 0 0 0
1198 3 16.065000000000005 28.560000000000002 44.625 0 0 0
1199 2 16.065000000000005 30.345 42.84 0 0 0
1232 3 16.065000000000005 32.13 19.635000000000005 0 0 0
1233 1 16.065000000000005 33.915 17.850000000000005 0 0 0
1234 2 14.280000000000008 32.13 21.420000000000005 0 0 0
1235 2 14.280000000000008 33.915 23.205000000000005 0 0 0
1236 1 16.065000000000005 32.13 23.205000000000005 0 0 0
1237 1 16.065000000000005 33.915 21.420000000000005 0 0 0
1238 3 14.280000000000008 32.13 24.990000000000002 0 0 0
1239 3 14.280000000000008 33.915 26.775000000000006 0 0 0
1240 2 16.065000000000005 32.13 26.775000000000006 0 0 0
1241 3 16.065000000000005 33.915 24.990000000000002 0 0 0
1242 1 14.280000000000008 32.13 28.560000000000002 0 0 0
1243 1 14.280000000000008 33.915 30.345 0 0 0
1244 2 16.065000000000005 32.13 30.345 0 0 0
1245 4 16.065000000000005 33.915 28.560000000000002 0 0 0
1246 5 14.280000000000008 32.13 32.13 0 0 0
1247 4 14.280000000000008 33.915 33.915 0 0 0
1248 1 16.065000000000005 32.13 33.915 0 0 0
1249 1 16.065000000000005 33.915 32.13 0 0 0
1250 4 14.280000000000008 32.13 35.7 0 0 0
1251 1 14.280000000000008 33.915 37.485 0 0 0
1252 1 16.065000000000005 32.13 37.485 0 0 0
1253 3 16.065000000000005 33.915 35.7 0 0 0
1254 1 14.280000000000008 32.13 39.27 0 0 0
1255 2 14.280000000000008 33.915 41.055 0 0 0
1256 1 16.065000000000005 32.13 41.055 0 0 0
1257 1 16.065000000000005 33.915 39.27 0 0 0
1258 3 14.280000000000008 32.13 42.84 0 0 0
1259 2 14.280000000000008 33.915 44.625 0 0 0
1260 5 16.065000000000005 32.13 44.625 0 0 0
1261 1 16.065000000000005 33.915 42.84 0 0 0
1294 1 16.065000000000005 35.7 19.635000000000005 0 0 0
1295 2 16.065000000000005 37.485 17.850000000000005 0 0 0
1296 1 14.280000000000008 35.7 21.420000000000005 0 0 0
1297 1 14.280000000000008 37.485 23.205000000000005 0 0 0
1298 1 16.065000000000005 35.7 23.205000000000005 0 0 0
1299 1 16.065000000000005 37.485 21.420000000000005 0 0 0
1300 3 14.280000000000008 35.7 24.990000000000002 0 0 0
1301 3 14.280000000000008 37.485 26.775000000000006 0 0 0
1302 3 16.065000000000005 35.7 26.775000000000006 0 0 0
1303 3 16.065000000000005 37.485 24.990000000000002 0 0 0
1304 5 14.280000000000008 35.7 28.560000000000002 0 0 0
1305 2 14.280000000000008 37.485 30.345 0 0 0
1306 2 16.065000000000005 35.7 30.345 0 0 0
1307 1 16.065000000000005 37.485 28.560000000000002 0 0 0
1308 5 14.280000000000008 35.7 32.13 0 0 0
1309 2 14.280000000000008 37.485 33.915 0 0 0
1310 2 16.065000000000005 35.7 33.915 0 0 0
1311 2 16.065000000000005 37.485 32.13 0 0 0
1312 4 14.280000000000008 35.7 35.7 0 0 0
1313 1 14.280000000000008 37.485 37.485 0 0 0
1314 1 16.065000000000005 35.7 37.485 0 0 0
1315 4 16.065000000000005 37.485 35.7 0 0 0
1316 5 14.280000000000008 35.7 39.27 0 0 0
1317 1 14.280000000000008 37.485 41.055 0 0 0
1318 5 16.065000000000005 35.7 41.055 0 0 0
1319 1 16.065000000000005 37.485 39.27 0 0 0
1320 1 14.280000000000008 35.7 42.84 0 0 0
1321 3 14.280000000000008 37.485 44.625 0 0 0
1322 5 16.065000000000005 35.7 44.625 0 0 0
1323 1 16.065000000000005 37.485 42.84 0 0 0
1356 5 16.065000000000005 39.27 19.635000000000005 0 0 0
1357 1 16.065000000000005 41.055 17.850000000000005 0 0 0
1358 2 14.280000000000008 39.27 21.420000000000005 0 0 0
1359 5 14.280000000000008 41.055 23.205000000000005 0 0 0
1360 4 16.065000000000005 39.27 23.205000000000005 0 0 0
1361 1 16.065000000000005 41.055 21.420000000000005 0 0 0
1362 1 14.280000000000008 39.27 24.990000000000002 0 0 0
1363 3 14.280000000000008 41.055 26.775000000000006 0 0 0
1364 1 16.065000000000005 39.27 26.775000000000006 0 0 0
1365 1 16.065000000000005 41.055 24.990000000000002 0 0 0
1366 5 14.280000000000008 39.27 28.560000000000002 0 0 0
1367 1 14.280000000000008 41.055 30.345 0 0 0
1368 5 16.065000000000005 39.27 30.345 0 0 0
1369 4 16.065000000000005 41.055 28.560000000000002 0 0 0
1370 4 14.280000000000008 39.27 32.13 0 0 0
1371 1 14.280000000000008 41.055 33.915 0 0 0
1372 5 16.065000000000005 39.27 33.915 0 0 0
1373 2 16.065000000000005 41.055 32.13 0 0 0
1374 3 14.280000000000008 39.27 35.7 0 0 0
1375 2 14.280000000000008 41.055 37.485 0 0 0
1376 5 16.065000000000005 39.27 37.485 0 0 0
1377 2 16.065000000000005 41.055 35.7 0 0 0
1378 4 14.280000000000008 39.27 39.27 0 0 0
1379 1 14.280000000000008 41.055 41.055 0 0 0
1380 1 16.065000000000005 39.27 41.055 0 0 0
1381 3 16.065000000000005 41.055 39.27 0 0 0
1382 2 14.280000000000008 39.27 42.84 0 0 0
1383 2 14.280000000000008 41.055 44.625 0 0 0
1384 4 16.065000000000005 39.27 44.625 0 0 0
1385 3 16.065000000000005 41.055 42.84 0 0 0
1418 3 16.065000000000005 42.84 19.635000000000005 0 0 0
1419 2 16.065000000000005 44.625 17.850000000000005 0 0 0
1420 4 14.280000000000008 42.84 21.420000000000005 0 0 0
1421 2 14.280000000000008 44.625 23.205000000000005 0 0 0
1422 5 16.065000000000005 42.84 23.205000000000005 0 0 0
1423 5 16.065000000000005 44.625 21.420000000000005 0 0 0
1424 2 14.280000000000008 42.84 24.990000000000002 0 0 0
1425 5 14.280000000000008 44.625 26.775000000000006 0 0 0
1426 4 16.065000000000005 42.84 26.775000000000006 0 0 0
1427 5 16.065000000000005 44.625 24.990000000000002 0 0 0
1428 2 14.280000000000008 42.84 28.560000000000002 0 0 0
1429 3 14.280000000000008 44.625 30.345 0 0 0
1430 1 16.065000000000005 42.84 30.345 0 0 0
1431 1 16.065000000000005 44.625 28.560000000000002 0 0 0
1432 3 14.280000000000008 42.84 32.13 0 0 0
1433 2 14.280000000000008 44.625 33.915 0 0 0
1434 4 16.065000000000005 42.84 33.915 0 0 0
1435 1 16.065000000000005 44.625 32.13 0 0 0
1436 5 14.280000000000008 42.84 35.7 0 0 0
1437 4 14.280000000000008 44.625 37.485 0 0 0
1438 1 16.065000000000005 42.84 37.485 0 0 0
1439 3 16.065000000000005 44.625 35.7 0 0 0
1440 4 14.280000000000008 42.84 39.27 0 0 0
1441 3 14.280000000000008 44.625 41.055 0 0 0
1442 1 16.065000000000005 42.84 41.055 0 0 0
1443 1 16.065000000000005 44.625 39.27 0 0 0
1444 4 14.280000000000008 42.84 42.84 0 0 0
1445 3 14.280000000000008 44.625 44.625 0 0 0
1446 4 16.065000000000005 42.84 44.625 0 0 0
1447 2 16.065000000000005 44.625 42.84 0 0 0
1978 1 17.850000000000005 16.065000000000005 19.635000000000005 0 0 0
1979 1 19.635000000000005 16.065000000000005 17.850000000000005 0 0 0
1980 4 17.850000000000005 16.065000000000005 23.205000000000005 0 0 0
1981 1 19.635000000000005 16.065000000000005 21.420000000000005 0 0 0
1982 1 17.850000000000005 16.065000000000005 26.775000000000006 0 0 0
1983 2 19.635000000000005 16.065000000000005 24.990000000000002 0 0 0
1984 3 17.850000000000005 16.065000000000005 30.345 0 0 0
1985 3 19.635000000000005 16.065000000000005 28.560000000000002 0 0 0
1986 3 17.850000000000005 16.065000000000005 33.915 0 0 0
1987 4 19.635000000000005 16.065000000000005 32.13 0 0 0
1988 3 17.850000000000005 16.065000000000005 37.485 0 0 0
1989 5 19.635000000000005 16.065000000000005 35.7 0 0 0
1990 4 17.850000000000005 16.065000000000005 41.055 0 0 0
1991 2 19.635000000000005 16.065000000000005 39.27 0 0 0
1992 4 17.850000000000005 16.065000000000005 44.625 0 0 0
1993 1 19.635000000000005 16.065000000000005 42.84 0 0 0
2011 2 17.850000000000005 19.635000000000005 16.065000000000005 0 0 0
2012 5 19.635000000000005 17.850000000000005 16.065000000000005 0 0 0
2013 1 17.850000000000005 17.850000000000005 17.850000000000005 0 0 0
2014 2 17.850000000000005 19.635000000000005 19.635000000000005 0 0 0
2015 1 19.635000000000005 17.850000000000005 19.635000000000005 0 0 0
2016 3 19.635000000000005 19.635000000000005 17.850000000000005 0 0 0
2017 5 17.850000000000005 17.850000000000005 21.420000000000005 0 0 0
2018 1 17.850000000000005 19.635000000000005 23.205000000000005 0 0 0
2019 3 19.635000000000005 17.850000000000005 23.205000000000005 0 0 0
2020 2 19.635000000000005 19.635000000000005 21.420000000000005 0 0 0
2021 3 17.850000000000005 17.850000000000005 24.990000000000002 0 0 0
2022 1 17.850000000000005 19.635000000000005 26.775000000000006 0 0 0
2023 3 19.635000000000005 17.850000000000005 26.775000000000006 0 0 0
2024 1 19.635000000000005 19.635000000000005 24.990000000000002 0 0 0
2025 1 17.850000000000005 17.850000000000005 28.560000000000002 0 0 0
2026 4 17.850000000000005 19.635000000000005 30.345 0 0 0
2027 2 19.635000000000005 17.850000000000005 30.345 0 0 0
2028 4 19.635000000000005 19.635000000000005 28.560000000000002 0 0 0
2029 5 17.850000000000005 17.850000000000005 32.13 0 0 0
2030 4 17.850000000000005 19.635000000000005 33.915 0 0 0
2031 3 19.635000000000005 17.850000000000005 33.915 0 0 0
2032 5 19.635000000000005 19.635000000000005 32.13 0 0 0
2033 3 17.850000000000005 17.850000000000005 35.7 0 0 0
2034 5 17.850000000000005 19.635000000000005 37.485 0 0 0
2035 1 19.635000000000005 17.850000000000005 37.485 0 0 0
2036 4 19.635000000000005 19.635000000000005 35.7 0 0 0
2037 3 17.850000000000005 17.850000000000005 39.27 0 0 0
2038 4 17.850000000000005 19.635000000000005 41.055 0 0 0
2039 3 19.635000000000005 17.850000000000005 41.055 0 0 0
2040 1 19.635000000000005 19.635000000000005 39.27 0 0 0
2041 5 17.850000000000005 17.850000000000005 42.84 0 0 0
2042 4 17.850000000000005 19.635000000000005 44.625 0 0 0
2043 2 19.635000000000005 17.850000000000005 44.625 0 0 0
2044 5 19.635000000000005 19.635000000000005 42.84 0 0 0
2081 3 17.850000000000005 23.205000000000005 16.065000000000005 0 0 0
2082 1 19.635000000000005 21.420000000000005 16.065000000000005 0 0 0
2083 1 17.850000000000005 21.420000000000005 17.850000000000005 0 0 0
2084 1 17.850000000000005 23.205000000000005 19.635000000000005 0 0 0
2085 2 19.635000000000005 21.420000000000005 19.635000000000005 0 0 0
2086 3 19.635000000000005 23.205000000000005 17.850000000000005 0 0 0
2087 3 17.850000000000005 21.420000000000005 21.420000000000005 0 0 0
2088 2 17.850000000000005 23.205000000000005 23.205000000000005 0 0 0
2089 2 19.635000000000005 21.420000000000005 23.205000000000005 0 0 0
2090 4 19.635000000000005 23.205000000000005 21.420000000000005 0 0 0
2091 2 17.850000000000005 21.420000000000005 24.990000000000002 0 0 0
2092 4 17.850000000000005 23.205000000000005 26.775000000000006 0 0 0
2093 1 19.635000000000005 21.420000000000005 26.775000000000006 0 0 0
2094 3 19.635000000000005 23.205000000000005 24.990000000000002 0 0 0
2095 2 17.850000000000005 21.420000000000005 28.560000000000002 0 0 0
2096 5 17.850000000000005 23.205000000000005 30.345 0 0 0
2097 5 19.635000000000005 21.420000000000005 30.345 0 0 0
2098 5 19.635000000000005 23.205000000000005 28.560000000000002 0 0 0
2099 1 17.850000000000005 21.420000000000005 32.13 0 0 0
2100 1 17.850000000000005 23.205000000000005 33.915 0 0 0
2101 3 19.635000000000005 21.420000000000005 33.915 0 0 0
2102 5 19.635000000000005 23.205000000000005 32.13 0 0 0
2103 5 17.850000000000005 21.420000000000005 35.7 0 0 0
2104 5 17.850000000000005 23.205000000000005 37.485 0 0 0
2105 3 19.635000000000005 21.420000000000005 37.485 0 0 0
2106 2 19.635000000000005 23.205000000000005 35.7 0 0 0
2107 1 17.850000000000005 21.420000000000005 39.27 0 0 0
2108 5 17.850000000000005 23.205000000000005 41.055 0 0 0
2109 3 19.635000000000005 21.420000000000005 41.055 0 0 0
2110 2 19.635000000000005 23.205000000000005 39.27 0 0 0
2111 3 17.850000000000005 21.420000000000005 42.84 0 0 0
2112 3 17.850000000000005 23.205000000000005 44.625 0 0 0
2113 4 19.635000000000005 21.420000000000005 44.625 0 0 0
2114 2 19.635000000000005 23.205000000000005 42.84 0 0 0
2151 4 17.850000000000005 26.775000000000006 16.065000000000005 0 0 0
2152 5 19.635000000000005 24.990000000000002 16.065000000000005 0 0 0
2153 5 17.850000000000005 24.990000000000002 17.850000000000005 0 0 0
2154 4 17.850000000000005 26.775000000000006 19.635000000000005 0 0 0
2155 2 19.635000000000005 24.990000000000002 19.635000000000005 0 0 0
2156 4 19.635000000000005 26.775000000000006 17.850000000000005 0 0 0
2157 4 17.850000000000005 24.990000000000002 21.420000000000005 0 0 0
2158 2 17.850000000000005 26.775000000000006 23.205000000000005 0 0 0
2159 4 19.635000000000005 24.990000000000002 23.205000000000005 0 0 0
2160 2 19.635000000000005 26.775000000000006 21.420000000000005 0 0 0
2161 5 17.850000000000005 24.990000000000002 24.990000000000002 0 0 0
2162 4 17.850000000000005 26.775000000000006 26.775000000000006 0 0 0
2163 3 19.635000000000005 24.990000000000002 26.775000000000006 0 0 0
2164 2 19.635000000000005 26.775000000000006 24.990000000000002 0 0 0
2165 1 17.850000000000005 24.990000000000002 28.560000000000002 0 0 0
2166 2 17.850000000000005 26.775000000000006 30.345 0 0 0
2167 4 19.635000000000005 24.990000000000002 30.345 0 0 0
2168 1 19.635000000000005 26.775000000000006 28.560000000000002 0 0 0
2169 4 17.850000000000005 24.990000000000002 32.13 0 0 0
2170 5 17.850000000000005 26.775000000000006 33.915 0 0 0
2171 5 19.635000000000005 24.990000000000002 33.915 0 0 0
2172 1 19.635000000000005 26.775000000000006 32.13 0 0 0