model_files/Co/Co_3000/Co_410/data.Co_410_hcp_3039 (written by ASE) 

3039 	 atoms 
1  atom types
0.0                      27  xlo xhi
0.0                      27  ylo yhi
0.0                      27  zlo zhi


Atoms 

     1   1      1.2550000000000026      5.0200000000000014      6.2750000000000021
     2   1      1.2550000000000026      6.2750000000000021      5.0200000000000014
     3   1      1.2550000000000026      5.0200000000000014      8.7850000000000001
     4   1      1.2550000000000026      6.2750000000000021      7.5300000000000002
     5   1      1.2550000000000026      5.0200000000000014      11.295000000000002
     6   1      1.2550000000000026      6.2750000000000021      10.040000000000001
     7   1      1.2550000000000026      5.0200000000000014      13.804999999999998
     8   1      1.2550000000000026      6.2750000000000021      12.549999999999999
     9   1      1.2550000000000026      5.0200000000000014      16.315000000000001
    10   1      1.2550000000000026      6.2750000000000021                   15.06
    11   1      1.2550000000000026      5.0200000000000014      18.824999999999999
    12   1      1.2550000000000026      6.2750000000000021                   17.57
    13   1      1.2550000000000026      6.2750000000000021      20.079999999999998
    14   1      1.2550000000000026      7.5300000000000002      6.2750000000000021
    15   1      1.2550000000000026      8.7850000000000001      5.0200000000000014
    16   1      1.2550000000000026      7.5300000000000002      8.7850000000000001
    17   1      1.2550000000000026      8.7850000000000001      7.5300000000000002
    18   1      1.2550000000000026      7.5300000000000002      11.295000000000002
    19   1      1.2550000000000026      8.7850000000000001      10.040000000000001
    20   1      1.2550000000000026      7.5300000000000002      13.804999999999998
    21   1      1.2550000000000026      8.7850000000000001      12.549999999999999
    22   1      1.2550000000000026      7.5300000000000002      16.315000000000001
    23   1      1.2550000000000026      8.7850000000000001                   15.06
    24   1      1.2550000000000026      7.5300000000000002      18.824999999999999
    25   1      1.2550000000000026      8.7850000000000001                   17.57
    26   1      1.2550000000000026      8.7850000000000001      20.079999999999998
    27   1      1.2550000000000026      10.040000000000001      6.2750000000000021
    28   1      1.2550000000000026      11.295000000000002      5.0200000000000014
    29   1      1.2550000000000026      10.040000000000001      8.7850000000000001
    30   1      1.2550000000000026      11.295000000000002      7.5300000000000002
    31   1  1.7763568394002505e-15      10.040000000000001      10.040000000000001
    32   1  1.7763568394002505e-15      11.295000000000002      11.295000000000002
    33   1      1.2550000000000026      10.040000000000001      11.295000000000002
    34   1      1.2550000000000026      11.295000000000002      10.040000000000001
    35   1  1.7763568394002505e-15      10.040000000000001      12.549999999999999
    36   1  1.7763568394002505e-15      11.295000000000002      13.804999999999998
    37   1      1.2550000000000026      10.040000000000001      13.804999999999998
    38   1      1.2550000000000026      11.295000000000002      12.549999999999999
    39   1  1.7763568394002505e-15      10.040000000000001                   15.06
    40   1      1.2550000000000026      10.040000000000001      16.315000000000001
    41   1      1.2550000000000026      11.295000000000002                   15.06
    42   1      1.2550000000000026      10.040000000000001      18.824999999999999
    43   1      1.2550000000000026      11.295000000000002                   17.57
    44   1      1.2550000000000026      11.295000000000002      20.079999999999998
    45   1      1.2550000000000026      12.549999999999999      6.2750000000000021
    46   1      1.2550000000000026      13.804999999999998      5.0200000000000014
    47   1      1.2550000000000026      12.549999999999999      8.7850000000000001
    48   1      1.2550000000000026      13.804999999999998      7.5300000000000002
    49   1  1.7763568394002505e-15      12.549999999999999      10.040000000000001
    50   1  1.7763568394002505e-15      13.804999999999998      11.295000000000002
    51   1      1.2550000000000026      12.549999999999999      11.295000000000002
    52   1      1.2550000000000026      13.804999999999998      10.040000000000001
    53   1  1.7763568394002505e-15      12.549999999999999      12.549999999999999
    54   1  1.7763568394002505e-15      13.804999999999998      13.804999999999998
    55   1      1.2550000000000026      12.549999999999999      13.804999999999998
    56   1      1.2550000000000026      13.804999999999998      12.549999999999999
    57   1  1.7763568394002505e-15      12.549999999999999                   15.06
    58   1      1.2550000000000026      12.549999999999999      16.315000000000001
    59   1      1.2550000000000026      13.804999999999998                   15.06
    60   1      1.2550000000000026      12.549999999999999      18.824999999999999
    61   1      1.2550000000000026      13.804999999999998                   17.57
    62   1      1.2550000000000026      13.804999999999998      20.079999999999998
    63   1      1.2550000000000026                   15.06      6.2750000000000021
    64   1      1.2550000000000026      16.315000000000001      5.0200000000000014
    65   1      1.2550000000000026                   15.06      8.7850000000000001
    66   1      1.2550000000000026      16.315000000000001      7.5300000000000002
    67   1  1.7763568394002505e-15                   15.06      10.040000000000001
    68   1      1.2550000000000026                   15.06      11.295000000000002
    69   1      1.2550000000000026      16.315000000000001      10.040000000000001
    70   1  1.7763568394002505e-15                   15.06      12.549999999999999
    71   1      1.2550000000000026                   15.06      13.804999999999998
    72   1      1.2550000000000026      16.315000000000001      12.549999999999999
    73   1  1.7763568394002505e-15                   15.06                   15.06
    74   1      1.2550000000000026                   15.06      16.315000000000001
    75   1      1.2550000000000026      16.315000000000001                   15.06
    76   1      1.2550000000000026                   15.06      18.824999999999999
    77   1      1.2550000000000026      16.315000000000001                   17.57
    78   1      1.2550000000000026      16.315000000000001      20.079999999999998
    79   1      1.2550000000000026                   17.57      6.2750000000000021
    80   1      1.2550000000000026      18.824999999999999      5.0200000000000014
    81   1      1.2550000000000026                   17.57      8.7850000000000001
    82   1      1.2550000000000026      18.824999999999999      7.5300000000000002
    83   1      1.2550000000000026                   17.57      11.295000000000002
    84   1      1.2550000000000026      18.824999999999999      10.040000000000001
    85   1      1.2550000000000026                   17.57      13.804999999999998
    86   1      1.2550000000000026      18.824999999999999      12.549999999999999
    87   1      1.2550000000000026                   17.57      16.315000000000001
    88   1      1.2550000000000026      18.824999999999999                   15.06
    89   1      1.2550000000000026                   17.57      18.824999999999999
    90   1      1.2550000000000026      18.824999999999999                   17.57
    91   1      1.2550000000000026      18.824999999999999      20.079999999999998
    92   1      1.2550000000000026      20.079999999999998      6.2750000000000021
    93   1      1.2550000000000026      20.079999999999998      8.7850000000000001
    94   1      1.2550000000000026      20.079999999999998      11.295000000000002
    95   1      1.2550000000000026      20.079999999999998      13.804999999999998
    96   1      1.2550000000000026      20.079999999999998      16.315000000000001
    97   1      1.2550000000000026      20.079999999999998      18.824999999999999
    98   1      2.5100000000000011      2.5100000000000011      2.5100000000000011
    99   1      2.5100000000000011      3.7650000000000001      3.7650000000000001
   100   1      3.7650000000000001      2.5100000000000011      3.7650000000000001
   101   1      3.7650000000000001      3.7650000000000001      2.5100000000000011
   102   1      2.5100000000000011      2.5100000000000011      5.0200000000000014
   103   1      2.5100000000000011      3.7650000000000001      6.2750000000000021
   104   1      3.7650000000000001      2.5100000000000011      6.2750000000000021
   105   1      3.7650000000000001      3.7650000000000001      5.0200000000000014
   106   1      2.5100000000000011      2.5100000000000011      7.5300000000000002
   107   1      2.5100000000000011      3.7650000000000001      8.7850000000000001
   108   1      3.7650000000000001      2.5100000000000011      8.7850000000000001
   109   1      3.7650000000000001      3.7650000000000001      7.5300000000000002
   110   1      2.5100000000000011      2.5100000000000011      10.040000000000001
   111   1      2.5100000000000011      3.7650000000000001      11.295000000000002
   112   1      3.7650000000000001      2.5100000000000011      11.295000000000002
   113   1      3.7650000000000001      3.7650000000000001      10.040000000000001
   114   1      2.5100000000000011      2.5100000000000011      12.549999999999999
   115   1      2.5100000000000011      3.7650000000000001      13.804999999999998
   116   1      3.7650000000000001      2.5100000000000011      13.804999999999998
   117   1      3.7650000000000001      3.7650000000000001      12.549999999999999
   118   1      2.5100000000000011      2.5100000000000011                   15.06
   119   1      2.5100000000000011      3.7650000000000001      16.315000000000001
   120   1      3.7650000000000001      2.5100000000000011      16.315000000000001
   121   1      3.7650000000000001      3.7650000000000001                   15.06
   122   1      2.5100000000000011      2.5100000000000011                   17.57
   123   1      2.5100000000000011      3.7650000000000001      18.824999999999999
   124   1      3.7650000000000001      2.5100000000000011      18.824999999999999
   125   1      3.7650000000000001      3.7650000000000001                   17.57
   126   1      2.5100000000000011      2.5100000000000011      20.079999999999998
   127   1      2.5100000000000011      3.7650000000000001      21.334999999999994
   128   1      3.7650000000000001      2.5100000000000011      21.334999999999994
   129   1      3.7650000000000001      3.7650000000000001      20.079999999999998
   130   1      2.5100000000000011      2.5100000000000011                   22.59
   131   1      3.7650000000000001      3.7650000000000001                   22.59
   132   1      2.5100000000000011      5.0200000000000014      2.5100000000000011
   133   1      2.5100000000000011      6.2750000000000021      3.7650000000000001
   134   1      3.7650000000000001      5.0200000000000014      3.7650000000000001
   135   1      3.7650000000000001      6.2750000000000021      2.5100000000000011
   136   1      2.5100000000000011      5.0200000000000014      5.0200000000000014
   137   1      2.5100000000000011      6.2750000000000021      6.2750000000000021
   138   1      3.7650000000000001      5.0200000000000014      6.2750000000000021
   139   1      3.7650000000000001      6.2750000000000021      5.0200000000000014
   140   1      2.5100000000000011      5.0200000000000014      7.5300000000000002
   141   1      2.5100000000000011      6.2750000000000021      8.7850000000000001
   142   1      3.7650000000000001      5.0200000000000014      8.7850000000000001
   143   1      3.7650000000000001      6.2750000000000021      7.5300000000000002
   144   1      2.5100000000000011      5.0200000000000014      10.040000000000001
   145   1      2.5100000000000011      6.2750000000000021      11.295000000000002
   146   1      3.7650000000000001      5.0200000000000014      11.295000000000002
   147   1      3.7650000000000001      6.2750000000000021      10.040000000000001
   148   1      2.5100000000000011      5.0200000000000014      12.549999999999999
   149   1      2.5100000000000011      6.2750000000000021      13.804999999999998
   150   1      3.7650000000000001      5.0200000000000014      13.804999999999998
   151   1      3.7650000000000001      6.2750000000000021      12.549999999999999
   152   1      2.5100000000000011      5.0200000000000014                   15.06
   153   1      2.5100000000000011      6.2750000000000021      16.315000000000001
   154   1      3.7650000000000001      5.0200000000000014      16.315000000000001
   155   1      3.7650000000000001      6.2750000000000021                   15.06
   156   1      2.5100000000000011      5.0200000000000014                   17.57
   157   1      2.5100000000000011      6.2750000000000021      18.824999999999999
   158   1      3.7650000000000001      5.0200000000000014      18.824999999999999
   159   1      3.7650000000000001      6.2750000000000021                   17.57
   160   1      2.5100000000000011      5.0200000000000014      20.079999999999998
   161   1      2.5100000000000011      6.2750000000000021      21.334999999999994
   162   1      3.7650000000000001      5.0200000000000014      21.334999999999994
   163   1      3.7650000000000001      6.2750000000000021      20.079999999999998
   164   1      2.5100000000000011      5.0200000000000014                   22.59
   165   1      3.7650000000000001      6.2750000000000021                   22.59
   166   1      2.5100000000000011      7.5300000000000002      2.5100000000000011
   167   1      2.5100000000000011      8.7850000000000001      3.7650000000000001
   168   1      3.7650000000000001      7.5300000000000002      3.7650000000000001
   169   1      3.7650000000000001      8.7850000000000001      2.5100000000000011
   170   1      2.5100000000000011      7.5300000000000002      5.0200000000000014
   171   1      2.5100000000000011      8.7850000000000001      6.2750000000000021
   172   1      3.7650000000000001      7.5300000000000002      6.2750000000000021
   173   1      3.7650000000000001      8.7850000000000001      5.0200000000000014
   174   1      2.5100000000000011      7.5300000000000002      7.5300000000000002
   175   1      2.5100000000000011      8.7850000000000001      8.7850000000000001
   176   1      3.7650000000000001      7.5300000000000002      8.7850000000000001
   177   1      3.7650000000000001      8.7850000000000001      7.5300000000000002
   178   1      2.5100000000000011      7.5300000000000002      10.040000000000001
   179   1      2.5100000000000011      8.7850000000000001      11.295000000000002
   180   1      3.7650000000000001      7.5300000000000002      11.295000000000002
   181   1      3.7650000000000001      8.7850000000000001      10.040000000000001
   182   1      2.5100000000000011      7.5300000000000002      12.549999999999999
   183   1      2.5100000000000011      8.7850000000000001      13.804999999999998
   184   1      3.7650000000000001      7.5300000000000002      13.804999999999998
   185   1      3.7650000000000001      8.7850000000000001      12.549999999999999
   186   1      2.5100000000000011      7.5300000000000002                   15.06
   187   1      2.5100000000000011      8.7850000000000001      16.315000000000001
   188   1      3.7650000000000001      7.5300000000000002      16.315000000000001
   189   1      3.7650000000000001      8.7850000000000001                   15.06
   190   1      2.5100000000000011      7.5300000000000002                   17.57
   191   1      2.5100000000000011      8.7850000000000001      18.824999999999999
   192   1      3.7650000000000001      7.5300000000000002      18.824999999999999
   193   1      3.7650000000000001      8.7850000000000001                   17.57
   194   1      2.5100000000000011      7.5300000000000002      20.079999999999998
   195   1      2.5100000000000011      8.7850000000000001      21.334999999999994
   196   1      3.7650000000000001      7.5300000000000002      21.334999999999994
   197   1      3.7650000000000001      8.7850000000000001      20.079999999999998
   198   1      2.5100000000000011      7.5300000000000002                   22.59
   199   1      3.7650000000000001      8.7850000000000001                   22.59
   200   1      2.5100000000000011      10.040000000000001      2.5100000000000011
   201   1      2.5100000000000011      11.295000000000002      3.7650000000000001
   202   1      3.7650000000000001      10.040000000000001      3.7650000000000001
   203   1      3.7650000000000001      11.295000000000002      2.5100000000000011
   204   1      2.5100000000000011      10.040000000000001      5.0200000000000014
   205   1      2.5100000000000011      11.295000000000002      6.2750000000000021
   206   1      3.7650000000000001      10.040000000000001      6.2750000000000021
   207   1      3.7650000000000001      11.295000000000002      5.0200000000000014
   208   1      2.5100000000000011      10.040000000000001      7.5300000000000002
   209   1      2.5100000000000011      11.295000000000002      8.7850000000000001
   210   1      3.7650000000000001      10.040000000000001      8.7850000000000001
   211   1      3.7650000000000001      11.295000000000002      7.5300000000000002
   212   1      2.5100000000000011      10.040000000000001      10.040000000000001
   213   1      2.5100000000000011      11.295000000000002      11.295000000000002
   214   1      3.7650000000000001      10.040000000000001      11.295000000000002
   215   1      3.7650000000000001      11.295000000000002      10.040000000000001
   216   1      2.5100000000000011      10.040000000000001      12.549999999999999
   217   1      2.5100000000000011      11.295000000000002      13.804999999999998
   218   1      3.7650000000000001      10.040000000000001      13.804999999999998
   219   1      3.7650000000000001      11.295000000000002      12.549999999999999
   220   1      2.5100000000000011      10.040000000000001                   15.06
   221   1      2.5100000000000011      11.295000000000002      16.315000000000001
   222   1      3.7650000000000001      10.040000000000001      16.315000000000001
   223   1      3.7650000000000001      11.295000000000002                   15.06
   224   1      2.5100000000000011      10.040000000000001                   17.57
   225   1      2.5100000000000011      11.295000000000002      18.824999999999999
   226   1      3.7650000000000001      10.040000000000001      18.824999999999999
   227   1      3.7650000000000001      11.295000000000002                   17.57
   228   1      2.5100000000000011      10.040000000000001      20.079999999999998
   229   1      2.5100000000000011      11.295000000000002      21.334999999999994
   230   1      3.7650000000000001      10.040000000000001      21.334999999999994
   231   1      3.7650000000000001      11.295000000000002      20.079999999999998
   232   1      2.5100000000000011      10.040000000000001                   22.59
   233   1      3.7650000000000001      11.295000000000002                   22.59
   234   1      2.5100000000000011      12.549999999999999      2.5100000000000011
   235   1      2.5100000000000011      13.804999999999998      3.7650000000000001
   236   1      3.7650000000000001      12.549999999999999      3.7650000000000001
   237   1      3.7650000000000001      13.804999999999998      2.5100000000000011
   238   1      2.5100000000000011      12.549999999999999      5.0200000000000014
   239   1      2.5100000000000011      13.804999999999998      6.2750000000000021
   240   1      3.7650000000000001      12.549999999999999      6.2750000000000021
   241   1      3.7650000000000001      13.804999999999998      5.0200000000000014
   242   1      2.5100000000000011      12.549999999999999      7.5300000000000002
   243   1      2.5100000000000011      13.804999999999998      8.7850000000000001
   244   1      3.7650000000000001      12.549999999999999      8.7850000000000001
   245   1      3.7650000000000001      13.804999999999998      7.5300000000000002
   246   1      2.5100000000000011      12.549999999999999      10.040000000000001
   247   1      2.5100000000000011      13.804999999999998      11.295000000000002
   248   1      3.7650000000000001      12.549999999999999      11.295000000000002
   249   1      3.7650000000000001      13.804999999999998      10.040000000000001
   250   1      2.5100000000000011      12.549999999999999      12.549999999999999
   251   1      2.5100000000000011      13.804999999999998      13.804999999999998
   252   1      3.7650000000000001      12.549999999999999      13.804999999999998
   253   1      3.7650000000000001      13.804999999999998      12.549999999999999
   254   1      2.5100000000000011      12.549999999999999                   15.06
   255   1      2.5100000000000011      13.804999999999998      16.315000000000001
   256   1      3.7650000000000001      12.549999999999999      16.315000000000001
   257   1      3.7650000000000001      13.804999999999998                   15.06
   258   1      2.5100000000000011      12.549999999999999                   17.57
   259   1      2.5100000000000011      13.804999999999998      18.824999999999999
   260   1      3.7650000000000001      12.549999999999999      18.824999999999999
   261   1      3.7650000000000001      13.804999999999998                   17.57
   262   1      2.5100000000000011      12.549999999999999      20.079999999999998
   263   1      2.5100000000000011      13.804999999999998      21.334999999999994
   264   1      3.7650000000000001      12.549999999999999      21.334999999999994
   265   1      3.7650000000000001      13.804999999999998      20.079999999999998
   266   1      2.5100000000000011      12.549999999999999                   22.59
   267   1      3.7650000000000001      13.804999999999998                   22.59
   268   1      2.5100000000000011                   15.06      2.5100000000000011
   269   1      2.5100000000000011      16.315000000000001      3.7650000000000001
   270   1      3.7650000000000001                   15.06      3.7650000000000001
   271   1      3.7650000000000001      16.315000000000001      2.5100000000000011
   272   1      2.5100000000000011                   15.06      5.0200000000000014
   273   1      2.5100000000000011      16.315000000000001      6.2750000000000021
   274   1      3.7650000000000001                   15.06      6.2750000000000021
   275   1      3.7650000000000001      16.315000000000001      5.0200000000000014
   276   1      2.5100000000000011                   15.06      7.5300000000000002
   277   1      2.5100000000000011      16.315000000000001      8.7850000000000001
   278   1      3.7650000000000001                   15.06      8.7850000000000001
   279   1      3.7650000000000001      16.315000000000001      7.5300000000000002
   280   1      2.5100000000000011                   15.06      10.040000000000001
   281   1      2.5100000000000011      16.315000000000001      11.295000000000002
   282   1      3.7650000000000001                   15.06      11.295000000000002
   283   1      3.7650000000000001      16.315000000000001      10.040000000000001
   284   1      2.5100000000000011                   15.06      12.549999999999999
   285   1      2.5100000000000011      16.315000000000001      13.804999999999998
   286   1      3.7650000000000001                   15.06      13.804999999999998
   287   1      3.7650000000000001      16.315000000000001      12.549999999999999
   288   1      2.5100000000000011                   15.06                   15.06
   289   1      2.5100000000000011      16.315000000000001      16.315000000000001
   290   1      3.7650000000000001                   15.06      16.315000000000001
   291   1      3.7650000000000001      16.315000000000001                   15.06
   292   1      2.5100000000000011                   15.06                   17.57
   293   1      2.5100000000000011      16.315000000000001      18.824999999999999
   294   1      3.7650000000000001                   15.06      18.824999999999999
   295   1      3.7650000000000001      16.315000000000001                   17.57
   296   1      2.5100000000000011                   15.06      20.079999999999998
   297   1      2.5100000000000011      16.315000000000001      21.334999999999994
   298   1      3.7650000000000001                   15.06      21.334999999999994
   299   1      3.7650000000000001      16.315000000000001      20.079999999999998
   300   1      2.5100000000000011                   15.06                   22.59
   301   1      3.7650000000000001      16.315000000000001                   22.59
   302   1      2.5100000000000011                   17.57      2.5100000000000011
   303   1      2.5100000000000011      18.824999999999999      3.7650000000000001
   304   1      3.7650000000000001                   17.57      3.7650000000000001
   305   1      3.7650000000000001      18.824999999999999      2.5100000000000011
   306   1      2.5100000000000011                   17.57      5.0200000000000014
   307   1      2.5100000000000011      18.824999999999999      6.2750000000000021
   308   1      3.7650000000000001                   17.57      6.2750000000000021
   309   1      3.7650000000000001      18.824999999999999      5.0200000000000014
   310   1      2.5100000000000011                   17.57      7.5300000000000002
   311   1      2.5100000000000011      18.824999999999999      8.7850000000000001
   312   1      3.7650000000000001                   17.57      8.7850000000000001
   313   1      3.7650000000000001      18.824999999999999      7.5300000000000002
   314   1      2.5100000000000011                   17.57      10.040000000000001
   315   1      2.5100000000000011      18.824999999999999      11.295000000000002
   316   1      3.7650000000000001                   17.57      11.295000000000002
   317   1      3.7650000000000001      18.824999999999999      10.040000000000001
   318   1      2.5100000000000011                   17.57      12.549999999999999
   319   1      2.5100000000000011      18.824999999999999      13.804999999999998
   320   1      3.7650000000000001                   17.57      13.804999999999998
   321   1      3.7650000000000001      18.824999999999999      12.549999999999999
   322   1      2.5100000000000011                   17.57                   15.06
   323   1      2.5100000000000011      18.824999999999999      16.315000000000001
   324   1      3.7650000000000001                   17.57      16.315000000000001
   325   1      3.7650000000000001      18.824999999999999                   15.06
   326   1      2.5100000000000011                   17.57                   17.57
   327   1      2.5100000000000011      18.824999999999999      18.824999999999999
   328   1      3.7650000000000001                   17.57      18.824999999999999
   329   1      3.7650000000000001      18.824999999999999                   17.57
   330   1      2.5100000000000011                   17.57      20.079999999999998
   331   1      2.5100000000000011      18.824999999999999      21.334999999999994
   332   1      3.7650000000000001                   17.57      21.334999999999994
   333   1      3.7650000000000001      18.824999999999999      20.079999999999998
   334   1      2.5100000000000011                   17.57                   22.59
   335   1      3.7650000000000001      18.824999999999999                   22.59
   336   1      2.5100000000000011      20.079999999999998      2.5100000000000011
   337   1      2.5100000000000011      21.334999999999994      3.7650000000000001
   338   1      3.7650000000000001      20.079999999999998      3.7650000000000001
   339   1      3.7650000000000001      21.334999999999994      2.5100000000000011
   340   1      2.5100000000000011      20.079999999999998      5.0200000000000014
   341   1      2.5100000000000011      21.334999999999994      6.2750000000000021
   342   1      3.7650000000000001      20.079999999999998      6.2750000000000021
   343   1      3.7650000000000001      21.334999999999994      5.0200000000000014
   344   1      2.5100000000000011      20.079999999999998      7.5300000000000002
   345   1      2.5100000000000011      21.334999999999994      8.7850000000000001
   346   1      3.7650000000000001      20.079999999999998      8.7850000000000001
   347   1      3.7650000000000001      21.334999999999994      7.5300000000000002
   348   1      2.5100000000000011      20.079999999999998      10.040000000000001
   349   1      2.5100000000000011      21.334999999999994      11.295000000000002
   350   1      3.7650000000000001      20.079999999999998      11.295000000000002
   351   1      3.7650000000000001      21.334999999999994      10.040000000000001
   352   1      2.5100000000000011      20.079999999999998      12.549999999999999
   353   1      2.5100000000000011      21.334999999999994      13.804999999999998
   354   1      3.7650000000000001      20.079999999999998      13.804999999999998
   355   1      3.7650000000000001      21.334999999999994      12.549999999999999
   356   1      2.5100000000000011      20.079999999999998                   15.06
   357   1      2.5100000000000011      21.334999999999994      16.315000000000001
   358   1      3.7650000000000001      20.079999999999998      16.315000000000001