LAMMPS data file via write_data, version 30 Nov 2020, timestep = 0

29879 atoms
5 atom types

0 95 xlo xhi
0 95 ylo yhi
0 95 zlo zhi

Masses

1 58.7
2 55.8
3 52
4 59
5 26

Atoms # atomic

1 1 1.8049999999999997 41.515 43.32 0 0 0
2 1 1.8049999999999997 41.515 46.93 0 0 0
4 4 1.8049999999999997 43.32 41.515 0 0 0
5 2 0 43.32 43.32 0 0 0
6 4 0 45.125 45.125 0 0 0
7 1 1.8049999999999997 43.32 45.125 0 0 0
8 2 1.8049999999999997 45.125 43.32 0 0 0
9 3 0 43.32 46.93 0 0 0
12 1 1.8049999999999997 45.125 46.93 0 0 0
16 1 1.8049999999999997 46.93 41.515 0 0 0
17 4 0 46.93 43.32 0 0 0
19 3 1.8049999999999997 46.93 45.125 0 0 0
21 5 0 46.93 46.93 0 0 0
38 4 3.6099999999999994 37.905 37.905 0 0 0
39 1 5.414999999999999 36.1 37.905 0 0 0
40 4 5.414999999999999 37.905 36.1 0 0 0
41 4 3.6099999999999994 37.905 41.515 0 0 0
42 4 5.414999999999999 36.1 41.515 0 0 0
43 3 5.414999999999999 37.905 39.71 0 0 0
44 2 3.6099999999999994 37.905 45.125 0 0 0
45 5 5.414999999999999 36.1 45.125 0 0 0
46 2 5.414999999999999 37.905 43.32 0 0 0
49 4 5.414999999999999 37.905 46.93 0 0 0
57 1 3.6099999999999994 41.515 37.905 0 0 0
58 5 5.414999999999999 39.71 37.905 0 0 0
59 3 5.414999999999999 41.515 36.1 0 0 0
60 1 3.6099999999999994 39.71 39.71 0 0 0
61 2 3.6099999999999994 41.515 41.515 0 0 0
62 4 5.414999999999999 39.71 41.515 0 0 0
63 1 5.414999999999999 41.515 39.71 0 0 0
64 1 3.6099999999999994 39.71 43.32 0 0 0
65 2 3.6099999999999994 41.515 45.125 0 0 0
66 2 5.414999999999999 39.71 45.125 0 0 0
67 1 5.414999999999999 41.515 43.32 0 0 0
68 2 3.6099999999999994 39.71 46.93 0 0 0
71 4 5.414999999999999 41.515 46.93 0 0 0
81 2 3.6099999999999994 45.125 37.905 0 0 0
82 3 5.414999999999999 43.32 37.905 0 0 0
83 1 5.414999999999999 45.125 36.1 0 0 0
84 4 3.6099999999999994 43.32 39.71 0 0 0
85 4 3.6099999999999994 45.125 41.515 0 0 0
86 4 5.414999999999999 43.32 41.515 0 0 0
87 3 5.414999999999999 45.125 39.71 0 0 0
88 3 3.6099999999999994 43.32 43.32 0 0 0
89 1 3.6099999999999994 45.125 45.125 0 0 0
90 4 5.414999999999999 43.32 45.125 0 0 0
91 4 5.414999999999999 45.125 43.32 0 0 0
92 1 3.6099999999999994 43.32 46.93 0 0 0
95 3 5.414999999999999 45.125 46.93 0 0 0
106 1 5.414999999999999 46.93 37.905 0 0 0
108 2 3.6099999999999994 46.93 39.71 0 0 0
110 4 5.414999999999999 46.93 41.515 0 0 0
112 1 3.6099999999999994 46.93 43.32 0 0 0
114 3 5.414999999999999 46.93 45.125 0 0 0
116 2 3.6099999999999994 46.93 46.93 0 0 0
183 5 9.024999999999999 30.685000000000002 32.49 0 0 0
184 1 9.024999999999999 30.685000000000002 36.1 0 0 0
185 5 9.024999999999999 30.685000000000002 39.71 0 0 0
186 2 9.024999999999999 30.685000000000002 43.32 0 0 0
187 5 9.024999999999999 30.685000000000002 46.93 0 0 0
192 4 9.024999999999999 32.49 30.685000000000002 0 0 0
193 3 7.219999999999999 32.49 32.49 0 0 0
194 3 7.219999999999999 34.295 34.295 0 0 0
195 2 9.024999999999999 32.49 34.295 0 0 0
196 1 9.024999999999999 34.295 32.49 0 0 0
197 3 7.219999999999999 32.49 36.1 0 0 0
198 5 7.219999999999999 34.295 37.905 0 0 0
199 5 9.024999999999999 32.49 37.905 0 0 0
200 5 9.024999999999999 34.295 36.1 0 0 0
201 4 7.219999999999999 32.49 39.71 0 0 0
202 2 7.219999999999999 34.295 41.515 0 0 0
203 4 9.024999999999999 32.49 41.515 0 0 0
204 4 9.024999999999999 34.295 39.71 0 0 0
205 1 7.219999999999999 32.49 43.32 0 0 0
206 2 7.219999999999999 34.295 45.125 0 0 0
207 1 9.024999999999999 32.49 45.125 0 0 0
208 5 9.024999999999999 34.295 43.32 0 0 0
209 5 7.219999999999999 32.49 46.93 0 0 0
212 3 9.024999999999999 34.295 46.93 0 0 0
228 5 9.024999999999999 36.1 30.685000000000002 0 0 0
229 4 7.219999999999999 36.1 32.49 0 0 0
230 3 7.219999999999999 37.905 34.295 0 0 0
231 2 9.024999999999999 36.1 34.295 0 0 0
232 3 9.024999999999999 37.905 32.49 0 0 0
233 2 7.219999999999999 36.1 36.1 0 0 0
234 3 7.219999999999999 37.905 37.905 0 0 0
235 3 9.024999999999999 36.1 37.905 0 0 0
236 2 9.024999999999999 37.905 36.1 0 0 0
237 2 7.219999999999999 36.1 39.71 0 0 0
238 3 7.219999999999999 37.905 41.515 0 0 0
239 3 9.024999999999999 36.1 41.515 0 0 0
240 2 9.024999999999999 37.905 39.71 0 0 0
241 2 7.219999999999999 36.1 43.32 0 0 0
242 5 7.219999999999999 37.905 45.125 0 0 0
243 3 9.024999999999999 36.1 45.125 0 0 0
244 3 9.024999999999999 37.905 43.32 0 0 0
245 2 7.219999999999999 36.1 46.93 0 0 0
248 3 9.024999999999999 37.905 46.93 0 0 0
264 1 9.024999999999999 39.71 30.685000000000002 0 0 0
265 4 7.219999999999999 39.71 32.49 0 0 0
266 5 7.219999999999999 41.515 34.295 0 0 0
267 5 9.024999999999999 39.71 34.295 0 0 0
268 5 9.024999999999999 41.515 32.49 0 0 0
269 3 7.219999999999999 39.71 36.1 0 0 0
270 3 7.219999999999999 41.515 37.905 0 0 0
271 1 9.024999999999999 39.71 37.905 0 0 0
272 1 9.024999999999999 41.515 36.1 0 0 0
273 3 7.219999999999999 39.71 39.71 0 0 0
274 5 7.219999999999999 41.515 41.515 0 0 0
275 2 9.024999999999999 39.71 41.515 0 0 0
276 2 9.024999999999999 41.515 39.71 0 0 0
277 2 7.219999999999999 39.71 43.32 0 0 0
278 1 7.219999999999999 41.515 45.125 0 0 0
279 3 9.024999999999999 39.71 45.125 0 0 0
280 1 9.024999999999999 41.515 43.32 0 0 0
281 3 7.219999999999999 39.71 46.93 0 0 0
284 1 9.024999999999999 41.515 46.93 0 0 0
300 5 9.024999999999999 43.32 30.685000000000002 0 0 0
301 3 7.219999999999999 43.32 32.49 0 0 0
302 1 7.219999999999999 45.125 34.295 0 0 0
303 1 9.024999999999999 43.32 34.295 0 0 0
304 3 9.024999999999999 45.125 32.49 0 0 0
305 3 7.219999999999999 43.32 36.1 0 0 0
306 2 7.219999999999999 45.125 37.905 0 0 0
307 2 9.024999999999999 43.32 37.905 0 0 0
308 1 9.024999999999999 45.125 36.1 0 0 0
309 3 7.219999999999999 43.32 39.71 0 0 0
310 2 7.219999999999999 45.125 41.515 0 0 0
311 4 9.024999999999999 43.32 41.515 0 0 0
312 3 9.024999999999999 45.125 39.71 0 0 0
313 1 7.219999999999999 43.32 43.32 0 0 0
314 1 7.219999999999999 45.125 45.125 0 0 0
315 5 9.024999999999999 43.32 45.125 0 0 0
316 4 9.024999999999999 45.125 43.32 0 0 0
317 2 7.219999999999999 43.32 46.93 0 0 0
320 5 9.024999999999999 45.125 46.93 0 0 0
336 1 9.024999999999999 46.93 30.685000000000002 0 0 0
337 3 7.219999999999999 46.93 32.49 0 0 0
339 1 9.024999999999999 46.93 34.295 0 0 0
341 3 7.219999999999999 46.93 36.1 0 0 0
343 4 9.024999999999999 46.93 37.905 0 0 0
345 3 7.219999999999999 46.93 39.71 0 0 0
347 2 9.024999999999999 46.93 41.515 0 0 0
349 1 7.219999999999999 46.93 43.32 0 0 0
351 1 9.024999999999999 46.93 45.125 0 0 0
353 2 7.219999999999999 46.93 46.93 0 0 0
508 5 10.829999999999998 27.075 27.075 0 0 0
509 3 12.634999999999998 25.270000000000003 27.075 0 0 0
510 1 12.634999999999998 27.075 25.270000000000003 0 0 0
511 1 10.829999999999998 27.075 30.685000000000002 0 0 0
512 2 12.634999999999998 25.270000000000003 30.685000000000002 0 0 0
513 5 12.634999999999998 27.075 28.88 0 0 0
514 2 10.829999999999998 27.075 34.295 0 0 0
515 2 12.634999999999998 25.270000000000003 34.295 0 0 0
516 2 12.634999999999998 27.075 32.49 0 0 0
517 2 10.829999999999998 27.075 37.905 0 0 0
518 2 12.634999999999998 25.270000000000003 37.905 0 0 0
519 4 12.634999999999998 27.075 36.1 0 0 0
520 3 10.829999999999998 27.075 41.515 0 0 0
521 3 12.634999999999998 25.270000000000003 41.515 0 0 0
522 3 12.634999999999998 27.075 39.71 0 0 0
523 4 10.829999999999998 27.075 45.125 0 0 0
524 3 12.634999999999998 25.270000000000003 45.125 0 0 0
525 2 12.634999999999998 27.075 43.32 0 0 0
528 3 12.634999999999998 27.075 46.93 0 0 0
545 5 10.829999999999998 30.685000000000002 27.075 0 0 0
546 2 12.634999999999998 28.88 27.075 0 0 0
547 3 12.634999999999998 30.685000000000002 25.270000000000003 0 0 0
548 3 10.829999999999998 28.88 28.88 0 0 0
549 2 10.829999999999998 30.685000000000002 30.685000000000002 0 0 0
550 1 12.634999999999998 28.88 30.685000000000002 0 0 0
551 3 12.634999999999998 30.685000000000002 28.88 0 0 0
552 2 10.829999999999998 28.88 32.49 0 0 0
553 1 10.829999999999998 30.685000000000002 34.295 0 0 0
554 1 12.634999999999998 28.88 34.295 0 0 0
555 2 12.634999999999998 30.685000000000002 32.49 0 0 0
556 3 10.829999999999998 28.88 36.1 0 0 0
557 2 10.829999999999998 30.685000000000002 37.905 0 0 0
558 4 12.634999999999998 28.88 37.905 0 0 0
559 2 12.634999999999998 30.685000000000002 36.1 0 0 0
560 4 10.829999999999998 28.88 39.71 0 0 0
561 4 10.829999999999998 30.685000000000002 41.515 0 0 0
562 2 12.634999999999998 28.88 41.515 0 0 0
563 1 12.634999999999998 30.685000000000002 39.71 0 0 0
564 4 10.829999999999998 28.88 43.32 0 0 0
565 5 10.829999999999998 30.685000000000002 45.125 0 0 0
566 1 12.634999999999998 28.88 45.125 0 0 0
567 5 12.634999999999998 30.685000000000002 43.32 0 0 0
568 1 10.829999999999998 28.88 46.93 0 0 0
571 4 12.634999999999998 30.685000000000002 46.93 0 0 0
593 5 10.829999999999998 34.295 27.075 0 0 0
594 1 12.634999999999998 32.49 27.075 0 0 0
595 5 12.634999999999998 34.295 25.270000000000003 0 0 0
596 3 10.829999999999998 32.49 28.88 0 0 0
597 2 10.829999999999998 34.295 30.685000000000002 0 0 0
598 4 12.634999999999998 32.49 30.685000000000002 0 0 0
599 5 12.634999999999998 34.295 28.88 0 0 0
600 4 10.829999999999998 32.49 32.49 0 0 0
601 4 10.829999999999998 34.295 34.295 0 0 0
602 2 12.634999999999998 32.49 34.295 0 0 0
603 4 12.634999999999998 34.295 32.49 0 0 0
604 3 10.829999999999998 32.49 36.1 0 0 0
605 1 10.829999999999998 34.295 37.905 0 0 0
606 2 12.634999999999998 32.49 37.905 0 0 0
607 3 12.634999999999998 34.295 36.1 0 0 0
608 2 10.829999999999998 32.49 39.71 0 0 0
609 4 10.829999999999998 34.295 41.515 0 0 0
610 3 12.634999999999998 32.49 41.515 0 0 0
611 5 12.634999999999998 34.295 39.71 0 0 0
612 3 10.829999999999998 32.49 43.32 0 0 0
613 3 10.829999999999998 34.295 45.125 0 0 0
614 3 12.634999999999998 32.49 45.125 0 0 0
615 1 12.634999999999998 34.295 43.32 0 0 0
616 2 10.829999999999998 32.49 46.93 0 0 0
619 2 12.634999999999998 34.295 46.93 0 0 0
641 4 10.829999999999998 37.905 27.075 0 0 0
642 4 12.634999999999998 36.1 27.075 0 0 0
643 1 12.634999999999998 37.905 25.270000000000003 0 0 0
644 3 10.829999999999998 36.1 28.88 0 0 0
645 2 10.829999999999998 37.905 30.685000000000002 0 0 0
646 5 12.634999999999998 36.1 30.685000000000002 0 0 0
647 3 12.634999999999998 37.905 28.88 0 0 0
648 5 10.829999999999998 36.1 32.49 0 0 0
649 5 10.829999999999998 37.905 34.295 0 0 0
650 5 12.634999999999998 36.1 34.295 0 0 0
651 1 12.634999999999998 37.905 32.49 0 0 0
652 1 10.829999999999998 36.1 36.1 0 0 0
653 4 10.829999999999998 37.905 37.905 0 0 0
654 5 12.634999999999998 36.1 37.905 0 0 0
655 5 12.634999999999998 37.905 36.1 0 0 0
656 5 10.829999999999998 36.1 39.71 0 0 0
657 5 10.829999999999998 37.905 41.515 0 0 0
658 2 12.634999999999998 36.1 41.515 0 0 0
659 4 12.634999999999998 37.905 39.71 0 0 0
660 2 10.829999999999998 36.1 43.32 0 0 0
661 2 10.829999999999998 37.905 45.125 0 0 0
662 2 12.634999999999998 36.1 45.125 0 0 0
663 5 12.634999999999998 37.905 43.32 0 0 0
664 1 10.829999999999998 36.1 46.93 0 0 0
667 4 12.634999999999998 37.905 46.93 0 0 0
689 4 10.829999999999998 41.515 27.075 0 0 0
690 3 12.634999999999998 39.71 27.075 0 0 0
691 4 12.634999999999998 41.515 25.270000000000003 0 0 0
692 5 10.829999999999998 39.71 28.88 0 0 0
693 1 10.829999999999998 41.515 30.685000000000002 0 0 0
694 5 12.634999999999998 39.71 30.685000000000002 0 0 0
695 1 12.634999999999998 41.515 28.88 0 0 0
696 5 10.829999999999998 39.71 32.49 0 0 0
697 3 10.829999999999998 41.515 34.295 0 0 0
698 1 12.634999999999998 39.71 34.295 0 0 0
699 1 12.634999999999998 41.515 32.49 0 0 0
700 3 10.829999999999998 39.71 36.1 0 0 0
701 2 10.829999999999998 41.515 37.905 0 0 0
702 4 12.634999999999998 39.71 37.905 0 0 0
703 1 12.634999999999998 41.515 36.1 0 0 0
704 2 10.829999999999998 39.71 39.71 0 0 0
705 5 10.829999999999998 41.515 41.515 0 0 0
706 5 12.634999999999998 39.71 41.515 0 0 0
707 4 12.634999999999998 41.515 39.71 0 0 0
708 3 10.829999999999998 39.71 43.32 0 0 0
709 2 10.829999999999998 41.515 45.125 0 0 0
710 3 12.634999999999998 39.71 45.125 0 0 0
711 4 12.634999999999998 41.515 43.32 0 0 0
712 2 10.829999999999998 39.71 46.93 0 0 0
715 3 12.634999999999998 41.515 46.93 0 0 0
737 3 10.829999999999998 45.125 27.075 0 0 0
738 1 12.634999999999998 43.32 27.075 0 0 0
739 2 12.634999999999998 45.125 25.270000000000003 0 0 0
740 1 10.829999999999998 43.32 28.88 0 0 0
741 5 10.829999999999998 45.125 30.685000000000002 0 0 0
742 1 12.634999999999998 43.32 30.685000000000002 0 0 0
743 2 12.634999999999998 45.125 28.88 0 0 0
744 1 10.829999999999998 43.32 32.49 0 0 0
745 4 10.829999999999998 45.125 34.295 0 0 0
746 1 12.634999999999998 43.32 34.295 0 0 0
747 1 12.634999999999998 45.125 32.49 0 0 0
748 4 10.829999999999998 43.32 36.1 0 0 0
749 4 10.829999999999998 45.125 37.905 0 0 0
750 5 12.634999999999998 43.32 37.905 0 0 0
751 5 12.634999999999998 45.125 36.1 0 0 0
752 2 10.829999999999998 43.32 39.71 0 0 0
753 3 10.829999999999998 45.125 41.515 0 0 0
754 1 12.634999999999998 43.32 41.515 0 0 0
755 2 12.634999999999998 45.125 39.71 0 0 0
756 5 10.829999999999998 43.32 43.32 0 0 0
757 3 10.829999999999998 45.125 45.125 0 0 0
758 5 12.634999999999998 43.32 45.125 0 0 0
759 1 12.634999999999998 45.125 43.32 0 0 0
760 1 10.829999999999998 43.32 46.93 0 0 0
763 1 12.634999999999998 45.125 46.93 0 0 0
786 1 12.634999999999998 46.93 27.075 0 0 0
788 3 10.829999999999998 46.93 28.88 0 0 0
790 4 12.634999999999998 46.93 30.685000000000002 0 0 0
792 2 10.829999999999998 46.93 32.49 0 0 0
794 5 12.634999999999998 46.93 34.295 0 0 0
796 5 10.829999999999998 46.93 36.1 0 0 0
798 2 12.634999999999998 46.93 37.905 0 0 0
800 4 10.829999999999998 46.93 39.71 0 0 0
802 2 12.634999999999998 46.93 41.515 0 0 0
804 1 10.829999999999998 46.93 43.32 0 0 0
806 1 12.634999999999998 46.93 45.125 0 0 0
808 1 10.829999999999998 46.93 46.93 0 0 0
1085 1 16.245 19.855 21.66 0 0 0
1086 5 16.245 19.855 25.270000000000003 0 0 0
1087 2 16.245 19.855 28.88 0 0 0
1088 2 16.245 19.855 32.49 0 0 0
1089 4 16.245 19.855 36.1 0 0 0
1090 1 16.245 19.855 39.71 0 0 0
1091 3 16.245 19.855 43.32 0 0 0
1092 2 16.245 19.855 46.93 0 0 0
1100 2 16.245 21.66 19.855 0 0 0
1101 1 14.440000000000005 21.66 21.66 0 0 0
1102 2 14.440000000000005 23.465 23.465 0 0 0
1103 1 16.245 21.66 23.465 0 0 0
1104 2 16.245 23.465 21.66 0 0 0
1105 3 14.440000000000005 21.66 25.270000000000003 0 0 0
1106 1 14.440000000000005 23.465 27.075 0 0 0
1107 4 16.245 21.66 27.075 0 0 0
1108 2 16.245 23.465 25.270000000000003 0 0 0
1109 2 14.440000000000005 21.66 28.88 0 0 0
1110 3 14.440000000000005 23.465 30.685000000000002 0 0 0
1111 5 16.245 21.66 30.685000000000002 0 0 0
1112 3 16.245 23.465 28.88 0 0 0
1113 3 14.440000000000005 21.66 32.49 0 0 0
1114 5 14.440000000000005 23.465 34.295 0 0 0
1115 1 16.245 21.66 34.295 0 0 0
1116 4 16.245 23.465 32.49 0 0 0
1117 1 14.440000000000005 21.66 36.1 0 0 0
1118 4 14.440000000000005 23.465 37.905 0 0 0
1119 3 16.245 21.66 37.905 0 0 0
1120 5 16.245 23.465 36.1 0 0 0
1121 1 14.440000000000005 21.66 39.71 0 0 0
1122 2 14.440000000000005 23.465 41.515 0 0 0
1123 2 16.245 21.66 41.515 0 0 0
1124 5 16.245 23.465 39.71 0 0 0
1125 3 14.440000000000005 21.66 43.32 0 0 0
1126 5 14.440000000000005 23.465 45.125 0 0 0
1127 2 16.245 21.66 45.125 0 0 0
1128 4 16.245 23.465 43.32 0 0 0
1129 4 14.440000000000005 21.66 46.93 0 0 0
1132 5 16.245 23.465 46.93 0 0 0
1160 2 16.245 25.270000000000003 19.855 0 0 0
1161 2 14.440000000000005 25.270000000000003 21.66 0 0 0
1162 5 14.440000000000005 27.075 23.465 0 0 0
1163 5 16.245 25.270000000000003 23.465 0 0 0
1164 1 16.245 27.075 21.66 0 0 0
1165 3 14.440000000000005 25.270000000000003 25.270000000000003 0 0 0
1166 3 14.440000000000005 27.075 27.075 0 0 0
1167 5 16.245 25.270000000000003 27.075 0 0 0
1168 1 16.245 27.075 25.270000000000003 0 0 0
1169 3 14.440000000000005 25.270000000000003 28.88 0 0 0
1170 2 14.440000000000005 27.075 30.685000000000002 0 0 0
1171 2 16.245 25.270000000000003 30.685000000000002 0 0 0
1172 2 16.245 27.075 28.88 0 0 0
1173 1 14.440000000000005 25.270000000000003 32.49 0 0 0
1174 4 14.440000000000005 27.075 34.295 0 0 0
1175 1 16.245 25.270000000000003 34.295 0 0 0
1176 4 16.245 27.075 32.49 0 0 0
1177 3 14.440000000000005 25.270000000000003 36.1 0 0 0
1178 1 14.440000000000005 27.075 37.905 0 0 0
1179 4 16.245 25.270000000000003 37.905 0 0 0
1180 2 16.245 27.075 36.1 0 0 0
1181 4 14.440000000000005 25.270000000000003 39.71 0 0 0
1182 1 14.440000000000005 27.075 41.515 0 0 0
1183 5 16.245 25.270000000000003 41.515 0 0 0
1184 5 16.245 27.075 39.71 0 0 0
1185 5 14.440000000000005 25.270000000000003 43.32 0 0 0
1186 3 14.440000000000005 27.075 45.125 0 0 0
1187 5 16.245 25.270000000000003 45.125 0 0 0
1188 2 16.245 27.075 43.32 0 0 0
1189 3 14.440000000000005 25.270000000000003 46.93 0 0 0
1192 2 16.245 27.075 46.93 0 0 0
1220 4 16.245 28.88 19.855 0 0 0
1221 2 14.440000000000005 28.88 21.66 0 0 0
1222 1 14.440000000000005 30.685000000000002 23.465 0 0 0
1223 1 16.245 28.88 23.465 0 0 0
1224 4 16.245 30.685000000000002 21.66 0 0 0
1225 5 14.440000000000005 28.88 25.270000000000003 0 0 0
1226 2 14.440000000000005 30.685000000000002 27.075 0 0 0
1227 2 16.245 28.88 27.075 0 0 0
1228 4 16.245 30.685000000000002 25.270000000000003 0 0 0
1229 5 14.440000000000005 28.88 28.88 0 0 0
1230 5 14.440000000000005 30.685000000000002 30.685000000000002 0 0 0
1231 4 16.245 28.88 30.685000000000002 0 0 0
1232 5 16.245 30.685000000000002 28.88 0 0 0
1233 1 14.440000000000005 28.88 32.49 0 0 0
1234 4 14.440000000000005 30.685000000000002 34.295 0 0 0
1235 3 16.245 28.88 34.295 0 0 0
1236 1 16.245 30.685000000000002 32.49 0 0 0
1237 3 14.440000000000005 28.88 36.1 0 0 0
1238 4 14.440000000000005 30.685000000000002 37.905 0 0 0
1239 5 16.245 28.88 37.905 0 0 0
1240 2 16.245 30.685000000000002 36.1 0 0 0
1241 1 14.440000000000005 28.88 39.71 0 0 0
1242 5 14.440000000000005 30.685000000000002 41.515 0 0 0
1243 1 16.245 28.88 41.515 0 0 0
1244 5 16.245 30.685000000000002 39.71 0 0 0
1245 1 14.440000000000005 28.88 43.32 0 0 0
1246 3 14.440000000000005 30.685000000000002 45.125 0 0 0
1247 5 16.245 28.88 45.125 0 0 0
1248 2 16.245 30.685000000000002 43.32 0 0 0
1249 1 14.440000000000005 28.88 46.93 0 0 0
1252 1 16.245 30.685000000000002 46.93 0 0 0
1280 3 16.245 32.49 19.855 0 0 0
1281 1 14.440000000000005 32.49 21.66 0 0 0
1282 1 14.440000000000005 34.295 23.465 0 0 0
1283 1 16.245 32.49 23.465 0 0 0
1284 5 16.245 34.295 21.66 0 0 0
1285 3 14.440000000000005 32.49 25.270000000000003 0 0 0
1286 1 14.440000000000005 34.295 27.075 0 0 0
1287 2 16.245 32.49 27.075 0 0 0
1288 1 16.245 34.295 25.270000000000003 0 0 0
1289 1 14.440000000000005 32.49 28.88 0 0 0
1290 1 14.440000000000005 34.295 30.685000000000002 0 0 0
1291 5 16.245 32.49 30.685000000000002 0 0 0
1292 1 16.245 34.295 28.88 0 0 0
1293 3 14.440000000000005 32.49 32.49 0 0 0
1294 4 14.440000000000005 34.295 34.295 0 0 0
1295 1 16.245 32.49 34.295 0 0 0
1296 1 16.245 34.295 32.49 0 0 0
1297 2 14.440000000000005 32.49 36.1 0 0 0
1298 3 14.440000000000005 34.295 37.905 0 0 0
1299 1 16.245 32.49 37.905 0 0 0
1300 5 16.245 34.295 36.1 0 0 0
1301 5 14.440000000000005 32.49 39.71 0 0 0
1302 3 14.440000000000005 34.295 41.515 0 0 0
1303 4 16.245 32.49 41.515 0 0 0
1304 5 16.245 34.295 39.71 0 0 0
1305 5 14.440000000000005 32.49 43.32 0 0 0
1306 2 14.440000000000005 34.295 45.125 0 0 0
1307 1 16.245 32.49 45.125 0 0 0
1308 5 16.245 34.295 43.32 0 0 0
1309 4 14.440000000000005 32.49 46.93 0 0 0
1312 4 16.245 34.295 46.93 0 0 0
1340 3 16.245 36.1 19.855 0 0 0
1341 5 14.440000000000005 36.1 21.66 0 0 0
1342 4 14.440000000000005 37.905 23.465 0 0 0
1343 5 16.245 36.1 23.465 0 0 0
1344 3 16.245 37.905 21.66 0 0 0
1345 2 14.440000000000005 36.1 25.270000000000003 0 0 0
1346 1 14.440000000000005 37.905 27.075 0 0 0
1347 3 16.245 36.1 27.075 0 0 0
1348 2 16.245 37.905 25.270000000000003 0 0 0
1349 2 14.440000000000005 36.1 28.88 0 0 0
1350 1 14.440000000000005 37.905 30.685000000000002 0 0 0
1351 3 16.245 36.1 30.685000000000002 0 0 0
1352 2 16.245 37.905 28.88 0 0 0
1353 4 14.440000000000005 36.1 32.49 0 0 0
1354 5 14.440000000000005 37.905 34.295 0 0 0
1355 5 16.245 36.1 34.295 0 0 0
1356 2 16.245 37.905 32.49 0 0 0
1357 2 14.440000000000005 36.1 36.1 0 0 0
1358 5 14.440000000000005 37.905 37.905 0 0 0
1359 4 16.245 36.1 37.905 0 0 0
1360 2 16.245 37.905 36.1 0 0 0
1361 3 14.440000000000005 36.1 39.71 0 0 0
1362 1 14.440000000000005 37.905 41.515 0 0 0
1363 2 16.245 36.1 41.515 0 0 0
1364 4 16.245 37.905 39.71 0 0 0
1365 2 14.440000000000005 36.1 43.32 0 0 0
1366 5 14.440000000000005 37.905 45.125 0 0 0
1367 2 16.245 36.1 45.125 0 0 0
1368 2 16.245 37.905 43.32 0 0 0
1369 4 14.440000000000005 36.1 46.93 0 0 0
1372 3 16.245 37.905 46.93 0 0 0
1400 5 16.245 39.71 19.855 0 0 0
1401 5 14.440000000000005 39.71 21.66 0 0 0
1402 1 14.440000000000005 41.515 23.465 0 0 0
1403 3 16.245 39.71 23.465 0 0 0
1404 1 16.245 41.515 21.66 0 0 0
1405 5 14.440000000000005 39.71 25.270000000000003 0 0 0
1406 1 14.440000000000005 41.515 27.075 0 0 0
1407 4 16.245 39.71 27.075 0 0 0
1408 3 16.245 41.515 25.270000000000003 0 0 0
1409 4 14.440000000000005 39.71 28.88 0 0 0
1410 5 14.440000000000005 41.515 30.685000000000002 0 0 0
1411 5 16.245 39.71 30.685000000000002 0 0 0
1412 5 16.245 41.515 28.88 0 0 0
1413 3 14.440000000000005 39.71 32.49 0 0 0
1414 1 14.440000000000005 41.515 34.295 0 0 0
1415 3 16.245 39.71 34.295 0 0 0
1416 1 16.245 41.515 32.49 0 0 0
1417 1 14.440000000000005 39.71 36.1 0 0 0
1418 4 14.440000000000005 41.515 37.905 0 0 0
1419 4 16.245 39.71 37.905 0 0 0
1420 5 16.245 41.515 36.1 0 0 0
1421 3 14.440000000000005 39.71 39.71 0 0 0
1422 1 14.440000000000005 41.515 41.515 0 0 0
1423 1 16.245 39.71 41.515 0 0 0
1424 5 16.245 41.515 39.71 0 0 0
1425 1 14.440000000000005 39.71 43.32 0 0 0
1426 1 14.440000000000005 41.515 45.125 0 0 0
1427 5 16.245 39.71 45.125 0 0 0
1428 5 16.245 41.515 43.32 0 0 0
1429 2 14.440000000000005 39.71 46.93 0 0 0
1432 1 16.245 41.515 46.93 0 0 0
1460 2 16.245 43.32 19.855 0 0 0
1461 3 14.440000000000005 43.32 21.66 0 0 0
1462 3 14.440000000000005 45.125 23.465 0 0 0
1463 2 16.245 43.32 23.465 0 0 0
1464 5 16.245 45.125 21.66 0 0 0
1465 1 14.440000000000005 43.32 25.270000000000003 0 0 0
1466 3 14.440000000000005 45.125 27.075 0 0 0
1467 4 16.245 43.32 27.075 0 0 0
1468 4 16.245 45.125 25.270000000000003 0 0 0
1469 2 14.440000000000005 43.32 28.88 0 0 0
1470 4 14.440000000000005 45.125 30.685000000000002 0 0 0
1471 3 16.245 43.32 30.685000000000002 0 0 0
1472 3 16.245 45.125 28.88 0 0 0
1473 1 14.440000000000005 43.32 32.49 0 0 0
1474 3 14.440000000000005 45.125 34.295 0 0 0
1475 3 16.245 43.32 34.295 0 0 0
1476 5 16.245 45.125 32.49 0 0 0
1477 4 14.440000000000005 43.32 36.1 0 0 0
1478 4 14.440000000000005 45.125 37.905 0 0 0
1479 5 16.245 43.32 37.905 0 0 0
1480 5 16.245 45.125 36.1 0 0 0
1481 1 14.440000000000005 43.32 39.71 0 0 0
1482 5 14.440000000000005 45.125 41.515 0 0 0
1483 3 16.245 43.32 41.515 0 0 0
1484 3 16.245 45.125 39.71 0 0 0
1485 1 14.440000000000005 43.32 43.32 0 0 0
1486 2 14.440000000000005 45.125 45.125 0 0 0
1487 5 16.245 43.32 45.125 0 0 0
1488 3 16.245 45.125 43.32 0 0 0
1489 4 14.440000000000005 43.32 46.93 0 0 0
1492 1 16.245 45.125 46.93 0 0 0
1520 1 16.245 46.93 19.855 0 0 0
1521 5 14.440000000000005 46.93 21.66 0 0 0
1523 2 16.245 46.93 23.465 0 0 0
1525 2 14.440000000000005 46.93 25.270000000000003 0 0 0
1527 3 16.245 46.93 27.075 0 0 0
1529 2 14.440000000000005 46.93 28.88 0 0 0
1531 5 16.245 46.93 30.685000000000002 0 0 0
1533 2 14.440000000000005 46.93 32.49 0 0 0
1535 5 16.245 46.93 34.295 0 0 0
1537 3 14.440000000000005 46.93 36.1 0 0 0
1539 2 16.245 46.93 37.905 0 0 0
1541 3 14.440000000000005 46.93 39.71 0 0 0
1543 3 16.245 46.93 41.515 0 0 0
1545 3 14.440000000000005 46.93 43.32 0 0 0
1547 2 16.245 46.93 45.125 0 0 0
1549 2 14.440000000000005 46.93 46.93 0 0 0
1986 4 19.855 16.245 21.66 0 0 0
1987 1 19.855 16.245 25.270000000000003 0 0 0
1988 3 19.855 16.245 28.88 0 0 0
1989 3 19.855 16.245 32.49 0 0 0
1990 3 19.855 16.245 36.1 0 0 0
1991 1 19.855 16.245 39.71 0 0 0
1992 4 19.855 16.245 43.32 0 0 0
1993 3 19.855 16.245 46.93 0 0 0
2001 4 18.05 18.05 18.05 0 0 0
2002 1 18.05 19.855 19.855 0 0 0
2003 1 19.855 18.05 19.855 0 0 0
2004 2 19.855 19.855 18.05 0 0 0
2005 1 18.05 18.05 21.66 0 0 0
2006 3 18.05 19.855 23.465 0 0 0
2007 5 19.855 18.05 23.465 0 0 0
2008 5 19.855 19.855 21.66 0 0 0
2009 3 18.05 18.05 25.270000000000003 0 0 0
2010 4 18.05 19.855 27.075 0 0 0
2011 2 19.855 18.05 27.075 0 0 0
2012 3 19.855 19.855 25.270000000000003 0 0 0
2013 3 18.05 18.05 28.88 0 0 0
2014 5 18.05 19.855 30.685000000000002 0 0 0
2015 3 19.855 18.05 30.685000000000002 0 0 0
2016 3 19.855 19.855 28.88 0 0 0
2017 1 18.05 18.05 32.49 0 0 0
2018 4 18.05 19.855 34.295 0 0 0
2019 5 19.855 18.05 34.295 0 0 0
2020 2 19.855 19.855 32.49 0 0 0
2021 1 18.05 18.05 36.1 0 0 0
2022 3 18.05 19.855 37.905 0 0 0
2023 2 19.855 18.05 37.905 0 0 0
2024 5 19.855 19.855 36.1 0 0 0
2025 4 18.05 18.05 39.71 0 0 0
2026 5 18.05 19.855 41.515 0 0 0
2027 5 19.855 18.05 41.515 0 0 0
2028 2 19.855 19.855 39.71 0 0 0
2029 2 18.05 18.05 43.32 0 0 0
2030 4 18.05 19.855 45.125 0 0 0
2031 3 19.855 18.05 45.125 0 0 0
2032 4 19.855 19.855 43.32 0 0 0
2033 5 18.05 18.05 46.93 0 0 0
2036 5 19.855 19.855 46.93 0 0 0
2067 4 19.855 21.66 16.245 0 0 0
2068 2 18.05 21.66 18.05 0 0 0
2069 2 18.05 23.465 19.855 0 0 0
2070 2 19.855 21.66 19.855 0 0 0
2071 1 19.855 23.465 18.05 0 0 0
2072 4 18.05 21.66 21.66 0 0 0
2073 4 18.05 23.465 23.465 0 0 0
2074 5 19.855 21.66 23.465 0 0 0
2075 4 19.855 23.465 21.66 0 0 0
2076 5 18.05 21.66 25.270000000000003 0 0 0
2077 4 18.05 23.465 27.075 0 0 0
2078 2 19.855 21.66 27.075 0 0 0
2079 4 19.855 23.465 25.270000000000003 0 0 0
2080 4 18.05 21.66 28.88 0 0 0
2081 5 18.05 23.465 30.685000000000002 0 0 0
2082 1 19.855 21.66 30.685000000000002 0 0 0
2083 4 19.855 23.465 28.88 0 0 0
2084 1 18.05 21.66 32.49 0 0 0
2085 1 18.05 23.465 34.295 0 0 0
2086 2 19.855 21.66 34.295 0 0 0
2087 1 19.855 23.465 32.49 0 0 0
2088 1 18.05 21.66 36.1 0 0 0
2089 3 18.05 23.465 37.905 0 0 0
2090 2 19.855 21.66 37.905 0 0 0
2091 2 19.855 23.465 36.1 0 0 0
2092 1 18.05 21.66 39.71 0 0 0
2093 4 18.05 23.465 41.515 0 0 0
2094 4 19.855 21.66 41.515 0 0 0
2095 3 19.855 23.465 39.71 0 0 0
2096 2 18.05 21.66 43.32 0 0 0
2097 1 18.05 23.465 45.125 0 0 0
2098 5 19.855 21.66 45.125 0 0 0
2099 4 19.855 23.465 43.32 0 0 0
2100 1 18.05 21.66 46.93 0 0 0
2103 5 19.855 23.465 46.93 0 0 0
2135 3 19.855 25.270000000000003 16.245 0 0 0
2136 4 18.05 25.270000000000003 18.05 0 0 0
2137 3 18.05 27.075 19.855 0 0 0
2138 3 19.855 25.270000000000003 19.855 0 0 0
2139 5 19.855 27.075 18.05 0 0 0
2140 1 18.05 25.270000000000003 21.66 0 0 0
2141 4 18.05 27.075 23.465 0 0 0
2142 5 19.855 25.270000000000003 23.465 0 0 0
2143 5 19.855 27.075 21.66 0 0 0
2144 1 18.05 25.270000000000003 25.270000000000003 0 0 0
2145 5 18.05 27.075 27.075 0 0 0
2146 2 19.855 25.270000000000003 27.075 0 0 0
2147 4 19.855 27.075 25.270000000000003 0 0 0
2148 2 18.05 25.270000000000003 28.88 0 0 0
2149 1 18.05 27.075 30.685000000000002 0 0 0
2150 1 19.855 25.270000000000003 30.685000000000002 0 0 0
2151 2 19.855 27.075 28.88 0 0 0
2152 1 18.05 25.270000000000003 32.49 0 0 0
2153 5 18.05 27.075 34.295 0 0 0
2154 1 19.855 25.270000000000003 34.295 0 0 0
2155 4 19.855 27.075 32.49 0 0 0
2156 1 18.05 25.270000000000003 36.1 0 0 0
2157 3 18.05 27.075 37.905 0 0 0
2158 5 19.855 25.270000000000003 37.905 0 0 0
2159 3 19.855 27.075 36.1 0 0 0
2160 5 18.05 25.270000000000003 39.71 0 0 0
2161 5 18.05 27.075 41.515 0 0 0
2162 2 19.855 25.270000000000003 41.515 0 0 0
2163 3 19.855 27.075 39.71 0 0 0
2164 3 18.05 25.270000000000003 43.32 0 0 0
2165 5 18.05 27.075 45.125 0 0 0
2166 1 19.855 25.270000000000003 45.125 0 0 0
2167 3 19.855 27.075 43.32 0 0 0
2168 2 18.05 25.270000000000003 46.93 0 0 0
2171 4 19.855 27.075 46.93 0 0 0
2203 2 19.855 28.88 16.245 0 0 0
2204 2 18.05 28.88 18.05 0 0 0
2205 3 18.05 30.685000000000002 19.855 0 0 0
2206 2 19.855 28.88 19.855 0 0 0
2207 1 19.855 30.685000000000002 18.05 0 0 0
2208 3 18.05 28.88 21.66 0 0 0
2209 1 18.05 30.685000000000002 23.465 0 0 0
2210 4 19.855 28.88 23.465 0 0 0
2211 4 19.855 30.685000000000002 21.66 0 0 0
2212 5 18.05 28.88 25.270000000000003 0 0 0
2213 4 18.05 30.685000000000002 27.075 0 0 0
2214 1 19.855 28.88 27.075 0 0 0
2215 5 19.855 30.685000000000002 25.270000000000003 0 0 0
2216 2 18.05 28.88 28.88 0 0 0
2217 4 18.05 30.685000000000002 30.685000000000002 0 0 0
2218 1 19.855 28.88 30.685000000000002 0 0 0
2219 3 19.855 30.685000000000002 28.88 0 0 0
2220 5 18.05 28.88 32.49 0 0 0
2221 2 18.05 30.685000000000002 34.295 0 0 0
2222 1 19.855 28.88 34.295 0 0 0
2223 5 19.855 30.685000000000002 32.49 0 0 0
2224 3 18.05 28.88 36.1 0 0 0
2225 1 18.05 30.685000000000002 37.905 0 0 0
2226 4 19.855 28.88 37.905 0 0 0
2227 3 19.855 30.685000000000002 36.1 0 0 0
2228 1 18.05 28.88 39.71 0 0 0
2229 2 18.05 30.685000000000002 41.515 0 0 0
2230 1 19.855 28.88 41.515 0 0 0
2231 2 19.855 30.685000000000002 39.71 0 0 0
2232 3 18.05 28.88 43.32 0 0 0
2233 3 18.05 30.685000000000002 45.125 0 0 0
2234 2 19.855 28.88 45.125 0 0 0
2235 2 19.855 30.685000000000002 43.32 0 0 0
2236 3 18.05 28.88 46.93 0 0 0
2239 4 19.855 30.685000000000002 46.93 0 0 0
2271 2 19.855 32.49 16.245 0 0 0
2272 3 18.05 32.49 18.05 0 0 0
2273 5 18.05 34.295 19.855 0 0 0
2274 2 19.855 32.49 19.855 0 0 0
2275 2 19.855 34.295 18.05 0 0 0
2276 3 18.05 32.49 21.66 0 0 0
2277 2 18.05 34.295 23.465 0 0 0
2278 3 19.855 32.49 23.465 0 0 0
2279 2 19.855 34.295 21.66 0 0 0
2280 3 18.05 32.49 25.270000000000003 0 0 0
2281 1 18.05 34.295 27.075 0 0 0
2282 2 19.855 32.49 27.075 0 0 0
2283 4 19.855 34.295 25.270000000000003 0 0 0
2284 4 18.05 32.49 28.88 0 0 0
2285 1 18.05 34.295 30.685000000000002 0 0 0
2286 1 19.855 32.49 30.685000000000002 0 0 0
2287 4 19.855 34.295 28.88 0 0 0
2288 4 18.05 32.49 32.49 0 0 0
2289 1 18.05 34.295 34.295 0 0 0
2290 5 19.855 32.49 34.295 0 0 0
2291 1 19.855 34.295 32.49 0 0 0
2292 4 18.05 32.49 36.1 0 0 0
2293 3 18.05 34.295 37.905 0 0 0