model_files/Fe/Fe_30000/Fe_511/data.Fe_511_fcc_29981 (written by ASE) 

29981 	 atoms 
1  atom types
0.0                      80  xlo xhi
0.0                      80  ylo yhi
0.0                      80  zlo zhi


Atoms 

     1   1      1.4349999999999952      27.264999999999993       38.74499999999999
     2   1      1.4349999999999952      27.264999999999993      41.614999999999995
     3   1      1.4349999999999952      30.134999999999991      35.874999999999993
     4   1      1.4349999999999952      30.134999999999991       38.74499999999999
     5   1      1.4349999999999952      30.134999999999991      41.614999999999995
     6   1      1.4349999999999952      30.134999999999991      44.484999999999992
     7   1      1.4349999999999952      33.004999999999995      33.004999999999995
     8   1      1.4349999999999952      33.004999999999995      35.874999999999993
     9   1      1.4349999999999952      33.004999999999995       38.74499999999999
    10   1      79.999999999999986      31.569999999999997                   40.18
    11   1      1.4349999999999952      33.004999999999995      41.614999999999995
    12   1      1.4349999999999952      33.004999999999995      44.484999999999992
    13   1      1.4349999999999952      33.004999999999995       47.35499999999999
    14   1      1.4349999999999952      35.874999999999993      30.134999999999991
    15   1      1.4349999999999952      35.874999999999993      33.004999999999995
    16   1      1.4349999999999952      35.874999999999993      35.874999999999993
    17   1      79.999999999999986      34.439999999999991      37.309999999999988
    18   1      1.4349999999999952      35.874999999999993       38.74499999999999
    19   1      79.999999999999986      34.439999999999991                   40.18
    20   1      1.4349999999999952      35.874999999999993      41.614999999999995
    21   1      79.999999999999986      34.439999999999991       43.04999999999999
    22   1      1.4349999999999952      35.874999999999993      44.484999999999992
    23   1      1.4349999999999952      35.874999999999993       47.35499999999999
    24   1      1.4349999999999952      35.874999999999993      50.225000000000001
    25   1      1.4349999999999952       38.74499999999999      27.264999999999993
    26   1      1.4349999999999952       38.74499999999999      30.134999999999991
    27   1      1.4349999999999952       38.74499999999999      33.004999999999995
    28   1      79.999999999999986      37.309999999999988      34.439999999999991
    29   1      1.4349999999999952       38.74499999999999      35.874999999999993
    30   1      79.999999999999986      37.309999999999988      37.309999999999988
    31   1      1.4349999999999952       38.74499999999999       38.74499999999999
    32   1      79.999999999999986      37.309999999999988                   40.18
    33   1      1.4349999999999952       38.74499999999999      41.614999999999995
    34   1      79.999999999999986      37.309999999999988       43.04999999999999
    35   1      1.4349999999999952       38.74499999999999      44.484999999999992
    36   1      79.999999999999986      37.309999999999988      45.919999999999987
    37   1      1.4349999999999952       38.74499999999999       47.35499999999999
    38   1      1.4349999999999952       38.74499999999999      50.225000000000001
    39   1      1.4349999999999952       38.74499999999999      53.094999999999999
    40   1      1.4349999999999952      41.614999999999995      27.264999999999993
    41   1      1.4349999999999952      41.614999999999995      30.134999999999991
    42   1      79.999999999999986                   40.18      31.569999999999997
    43   1      1.4349999999999952      41.614999999999995      33.004999999999995
    44   1      79.999999999999986                   40.18      34.439999999999991
    45   1      1.4349999999999952      41.614999999999995      35.874999999999993
    46   1      79.999999999999986                   40.18      37.309999999999988
    47   1      1.4349999999999952      41.614999999999995       38.74499999999999
    48   1      79.999999999999986                   40.18                   40.18
    49   1      1.4349999999999952      41.614999999999995      41.614999999999995
    50   1      79.999999999999986                   40.18       43.04999999999999
    51   1      1.4349999999999952      41.614999999999995      44.484999999999992
    52   1      79.999999999999986                   40.18      45.919999999999987
    53   1      1.4349999999999952      41.614999999999995       47.35499999999999
    54   1      79.999999999999986                   40.18      48.789999999999992
    55   1      1.4349999999999952      41.614999999999995      50.225000000000001
    56   1      1.4349999999999952      41.614999999999995      53.094999999999999
    57   1      1.4349999999999952      44.484999999999992      30.134999999999991
    58   1      1.4349999999999952      44.484999999999992      33.004999999999995
    59   1      79.999999999999986       43.04999999999999      34.439999999999991
    60   1      1.4349999999999952      44.484999999999992      35.874999999999993
    61   1      79.999999999999986       43.04999999999999      37.309999999999988
    62   1      1.4349999999999952      44.484999999999992       38.74499999999999
    63   1      79.999999999999986       43.04999999999999                   40.18
    64   1      1.4349999999999952      44.484999999999992      41.614999999999995
    65   1      79.999999999999986       43.04999999999999       43.04999999999999
    66   1      1.4349999999999952      44.484999999999992      44.484999999999992
    67   1      79.999999999999986       43.04999999999999      45.919999999999987
    68   1      1.4349999999999952      44.484999999999992       47.35499999999999
    69   1      1.4349999999999952      44.484999999999992      50.225000000000001
    70   1      1.4349999999999952       47.35499999999999      33.004999999999995
    71   1      1.4349999999999952       47.35499999999999      35.874999999999993
    72   1      79.999999999999986      45.919999999999987      37.309999999999988
    73   1      1.4349999999999952       47.35499999999999       38.74499999999999
    74   1      79.999999999999986      45.919999999999987                   40.18
    75   1      1.4349999999999952       47.35499999999999      41.614999999999995
    76   1      79.999999999999986      45.919999999999987       43.04999999999999
    77   1      1.4349999999999952       47.35499999999999      44.484999999999992
    78   1      1.4349999999999952       47.35499999999999       47.35499999999999
    79   1      1.4349999999999952      50.225000000000001      35.874999999999993
    80   1      1.4349999999999952      50.225000000000001       38.74499999999999
    81   1      79.999999999999986      48.789999999999992                   40.18
    82   1      1.4349999999999952      50.225000000000001      41.614999999999995
    83   1      1.4349999999999952      50.225000000000001      44.484999999999992
    84   1      1.4349999999999952      53.094999999999999       38.74499999999999
    85   1      1.4349999999999952      53.094999999999999      41.614999999999995
    86   1      4.3049999999999926      12.914999999999992       38.74499999999999
    87   1      4.3049999999999926      12.914999999999992      41.614999999999995
    88   1      4.3049999999999926      15.784999999999993      35.874999999999993
    89   1      4.3049999999999926      15.784999999999993       38.74499999999999
    90   1      4.3049999999999926      15.784999999999993      41.614999999999995
    91   1      4.3049999999999926      15.784999999999993      44.484999999999992
    92   1      4.3049999999999926       18.65499999999999      33.004999999999995
    93   1      4.3049999999999926       18.65499999999999      35.874999999999993
    94   1      4.3049999999999926       18.65499999999999       38.74499999999999
    95   1      2.8699999999999974      17.219999999999992                   40.18
    96   1      4.3049999999999926       18.65499999999999      41.614999999999995
    97   1      4.3049999999999926       18.65499999999999      44.484999999999992
    98   1      4.3049999999999926       18.65499999999999       47.35499999999999
    99   1      4.3049999999999926      21.524999999999995      30.134999999999991
   100   1      4.3049999999999926      21.524999999999995      33.004999999999995
   101   1      4.3049999999999926      21.524999999999995      35.874999999999993
   102   1      2.8699999999999974      20.089999999999996      37.309999999999988
   103   1      4.3049999999999926      21.524999999999995       38.74499999999999
   104   1      2.8699999999999974      20.089999999999996                   40.18
   105   1      4.3049999999999926      21.524999999999995      41.614999999999995
   106   1      2.8699999999999974      20.089999999999996       43.04999999999999
   107   1      4.3049999999999926      21.524999999999995      44.484999999999992
   108   1      4.3049999999999926      21.524999999999995       47.35499999999999
   109   1      4.3049999999999926      21.524999999999995      50.225000000000001
   110   1      4.3049999999999926      24.394999999999992      27.264999999999993
   111   1      4.3049999999999926      24.394999999999992      30.134999999999991
   112   1      4.3049999999999926      24.394999999999992      33.004999999999995
   113   1      2.8699999999999974      22.959999999999994      34.439999999999991
   114   1      4.3049999999999926      24.394999999999992      35.874999999999993
   115   1      2.8699999999999974      22.959999999999994      37.309999999999988
   116   1      4.3049999999999926      24.394999999999992       38.74499999999999
   117   1      2.8699999999999974      22.959999999999994                   40.18
   118   1      4.3049999999999926      24.394999999999992      41.614999999999995
   119   1      2.8699999999999974      22.959999999999994       43.04999999999999
   120   1      4.3049999999999926      24.394999999999992      44.484999999999992
   121   1      2.8699999999999974      22.959999999999994      45.919999999999987
   122   1      4.3049999999999926      24.394999999999992       47.35499999999999
   123   1      4.3049999999999926      24.394999999999992      50.225000000000001
   124   1      4.3049999999999926      24.394999999999992      53.094999999999999
   125   1      4.3049999999999926      27.264999999999993      24.394999999999992
   126   1      4.3049999999999926      27.264999999999993      27.264999999999993
   127   1      4.3049999999999926      27.264999999999993      30.134999999999991
   128   1      2.8699999999999974      25.829999999999991      31.569999999999997
   129   1      4.3049999999999926      27.264999999999993      33.004999999999995
   130   1      2.8699999999999974      25.829999999999991      34.439999999999991
   131   1      4.3049999999999926      27.264999999999993      35.874999999999993
   132   1      2.8699999999999974      25.829999999999991      37.309999999999988
   133   1      4.3049999999999926      27.264999999999993       38.74499999999999
   134   1      2.8699999999999974      25.829999999999991                   40.18
   135   1      4.3049999999999926      27.264999999999993      41.614999999999995
   136   1      2.8699999999999974      25.829999999999991       43.04999999999999
   137   1      4.3049999999999926      27.264999999999993      44.484999999999992
   138   1      2.8699999999999974      25.829999999999991      45.919999999999987
   139   1      4.3049999999999926      27.264999999999993       47.35499999999999
   140   1      2.8699999999999974      25.829999999999991      48.789999999999992
   141   1      4.3049999999999926      27.264999999999993      50.225000000000001
   142   1      4.3049999999999926      27.264999999999993      53.094999999999999
   143   1      4.3049999999999926      27.264999999999993      55.964999999999989
   144   1      4.3049999999999926      30.134999999999991      21.524999999999995
   145   1      4.3049999999999926      30.134999999999991      24.394999999999992
   146   1      4.3049999999999926      30.134999999999991      27.264999999999993
   147   1      2.8699999999999974      28.699999999999992      28.699999999999992
   148   1      4.3049999999999926      30.134999999999991      30.134999999999991
   149   1      2.8699999999999974      28.699999999999992      31.569999999999997
   150   1      4.3049999999999926      30.134999999999991      33.004999999999995
   151   1      2.8699999999999974      28.699999999999992      34.439999999999991
   152   1      4.3049999999999926      30.134999999999991      35.874999999999993
   153   1      2.8699999999999974      28.699999999999992      37.309999999999988
   154   1      4.3049999999999926      30.134999999999991       38.74499999999999
   155   1      2.8699999999999974      28.699999999999992                   40.18
   156   1      4.3049999999999926      30.134999999999991      41.614999999999995
   157   1      2.8699999999999974      28.699999999999992       43.04999999999999
   158   1      4.3049999999999926      30.134999999999991      44.484999999999992
   159   1      2.8699999999999974      28.699999999999992      45.919999999999987
   160   1      4.3049999999999926      30.134999999999991       47.35499999999999
   161   1      2.8699999999999974      28.699999999999992      48.789999999999992
   162   1      4.3049999999999926      30.134999999999991      50.225000000000001
   163   1      2.8699999999999974      28.699999999999992      51.659999999999997
   164   1      4.3049999999999926      30.134999999999991      53.094999999999999
   165   1      4.3049999999999926      30.134999999999991      55.964999999999989
   166   1      4.3049999999999926      30.134999999999991      58.834999999999994
   167   1      4.3049999999999926      33.004999999999995       18.65499999999999
   168   1      4.3049999999999926      33.004999999999995      21.524999999999995
   169   1      4.3049999999999926      33.004999999999995      24.394999999999992
   170   1      2.8699999999999974      31.569999999999997      25.829999999999991
   171   1      4.3049999999999926      33.004999999999995      27.264999999999993
   172   1      2.8699999999999974      31.569999999999997      28.699999999999992
   173   1      4.3049999999999926      33.004999999999995      30.134999999999991
   174   1      2.8699999999999974      31.569999999999997      31.569999999999997
   175   1      4.3049999999999926      33.004999999999995      33.004999999999995
   176   1      2.8699999999999974      31.569999999999997      34.439999999999991
   177   1      4.3049999999999926      33.004999999999995      35.874999999999993
   178   1      2.8699999999999974      31.569999999999997      37.309999999999988
   179   1      4.3049999999999926      33.004999999999995       38.74499999999999
   180   1      2.8699999999999974      31.569999999999997                   40.18
   181   1      4.3049999999999926      33.004999999999995      41.614999999999995
   182   1      2.8699999999999974      31.569999999999997       43.04999999999999
   183   1      4.3049999999999926      33.004999999999995      44.484999999999992
   184   1      2.8699999999999974      31.569999999999997      45.919999999999987
   185   1      4.3049999999999926      33.004999999999995       47.35499999999999
   186   1      2.8699999999999974      31.569999999999997      48.789999999999992
   187   1      4.3049999999999926      33.004999999999995      50.225000000000001
   188   1      2.8699999999999974      31.569999999999997      51.659999999999997
   189   1      4.3049999999999926      33.004999999999995      53.094999999999999
   190   1      2.8699999999999974      31.569999999999997      54.529999999999994
   191   1      4.3049999999999926      33.004999999999995      55.964999999999989
   192   1      4.3049999999999926      33.004999999999995      58.834999999999994
   193   1      4.3049999999999926      33.004999999999995      61.704999999999984
   194   1      4.3049999999999926      35.874999999999993      15.784999999999993
   195   1      4.3049999999999926      35.874999999999993       18.65499999999999
   196   1      4.3049999999999926      35.874999999999993      21.524999999999995
   197   1      2.8699999999999974      34.439999999999991      22.959999999999994
   198   1      4.3049999999999926      35.874999999999993      24.394999999999992
   199   1      2.8699999999999974      34.439999999999991      25.829999999999991
   200   1      4.3049999999999926      35.874999999999993      27.264999999999993
   201   1      2.8699999999999974      34.439999999999991      28.699999999999992
   202   1      4.3049999999999926      35.874999999999993      30.134999999999991
   203   1      2.8699999999999974      34.439999999999991      31.569999999999997
   204   1      4.3049999999999926      35.874999999999993      33.004999999999995
   205   1      2.8699999999999974      34.439999999999991      34.439999999999991
   206   1      4.3049999999999926      35.874999999999993      35.874999999999993
   207   1      2.8699999999999974      34.439999999999991      37.309999999999988
   208   1      4.3049999999999926      35.874999999999993       38.74499999999999
   209   1      2.8699999999999974      34.439999999999991                   40.18
   210   1      4.3049999999999926      35.874999999999993      41.614999999999995
   211   1      2.8699999999999974      34.439999999999991       43.04999999999999
   212   1      4.3049999999999926      35.874999999999993      44.484999999999992
   213   1      2.8699999999999974      34.439999999999991      45.919999999999987
   214   1      4.3049999999999926      35.874999999999993       47.35499999999999
   215   1      2.8699999999999974      34.439999999999991      48.789999999999992
   216   1      4.3049999999999926      35.874999999999993      50.225000000000001
   217   1      2.8699999999999974      34.439999999999991      51.659999999999997
   218   1      4.3049999999999926      35.874999999999993      53.094999999999999
   219   1      2.8699999999999974      34.439999999999991      54.529999999999994
   220   1      4.3049999999999926      35.874999999999993      55.964999999999989
   221   1      2.8699999999999974      34.439999999999991      57.399999999999991
   222   1      4.3049999999999926      35.874999999999993      58.834999999999994
   223   1      4.3049999999999926      35.874999999999993      61.704999999999984
   224   1      4.3049999999999926      35.874999999999993      64.574999999999989
   225   1      4.3049999999999926       38.74499999999999      12.914999999999992
   226   1      4.3049999999999926       38.74499999999999      15.784999999999993
   227   1      4.3049999999999926       38.74499999999999       18.65499999999999
   228   1      2.8699999999999974      37.309999999999988      20.089999999999996
   229   1      4.3049999999999926       38.74499999999999      21.524999999999995
   230   1      2.8699999999999974      37.309999999999988      22.959999999999994
   231   1      4.3049999999999926       38.74499999999999      24.394999999999992
   232   1      2.8699999999999974      37.309999999999988      25.829999999999991
   233   1      4.3049999999999926       38.74499999999999      27.264999999999993
   234   1      2.8699999999999974      37.309999999999988      28.699999999999992
   235   1      4.3049999999999926       38.74499999999999      30.134999999999991
   236   1      2.8699999999999974      37.309999999999988      31.569999999999997
   237   1      4.3049999999999926       38.74499999999999      33.004999999999995
   238   1      2.8699999999999974      37.309999999999988      34.439999999999991
   239   1      4.3049999999999926       38.74499999999999      35.874999999999993
   240   1      2.8699999999999974      37.309999999999988      37.309999999999988
   241   1      4.3049999999999926       38.74499999999999       38.74499999999999
   242   1      2.8699999999999974      37.309999999999988                   40.18
   243   1      4.3049999999999926       38.74499999999999      41.614999999999995
   244   1      2.8699999999999974      37.309999999999988       43.04999999999999
   245   1      4.3049999999999926       38.74499999999999      44.484999999999992
   246   1      2.8699999999999974      37.309999999999988      45.919999999999987
   247   1      4.3049999999999926       38.74499999999999       47.35499999999999
   248   1      2.8699999999999974      37.309999999999988      48.789999999999992
   249   1      4.3049999999999926       38.74499999999999      50.225000000000001
   250   1      2.8699999999999974      37.309999999999988      51.659999999999997
   251   1      4.3049999999999926       38.74499999999999      53.094999999999999
   252   1      2.8699999999999974      37.309999999999988      54.529999999999994
   253   1      4.3049999999999926       38.74499999999999      55.964999999999989
   254   1      2.8699999999999974      37.309999999999988      57.399999999999991
   255   1      4.3049999999999926       38.74499999999999      58.834999999999994
   256   1      2.8699999999999974      37.309999999999988      60.269999999999996
   257   1      4.3049999999999926       38.74499999999999      61.704999999999984
   258   1      4.3049999999999926       38.74499999999999      64.574999999999989
   259   1      4.3049999999999926       38.74499999999999      67.444999999999993
   260   1      4.3049999999999926      41.614999999999995      12.914999999999992
   261   1      4.3049999999999926      41.614999999999995      15.784999999999993
   262   1      2.8699999999999974                   40.18      17.219999999999992
   263   1      4.3049999999999926      41.614999999999995       18.65499999999999
   264   1      2.8699999999999974                   40.18      20.089999999999996
   265   1      4.3049999999999926      41.614999999999995      21.524999999999995
   266   1      2.8699999999999974                   40.18      22.959999999999994
   267   1      4.3049999999999926      41.614999999999995      24.394999999999992
   268   1      2.8699999999999974                   40.18      25.829999999999991
   269   1      4.3049999999999926      41.614999999999995      27.264999999999993
   270   1      2.8699999999999974                   40.18      28.699999999999992
   271   1      4.3049999999999926      41.614999999999995      30.134999999999991
   272   1      2.8699999999999974                   40.18      31.569999999999997
   273   1      4.3049999999999926      41.614999999999995      33.004999999999995
   274   1      2.8699999999999974                   40.18      34.439999999999991
   275   1      4.3049999999999926      41.614999999999995      35.874999999999993
   276   1      2.8699999999999974                   40.18      37.309999999999988
   277   1      4.3049999999999926      41.614999999999995       38.74499999999999
   278   1      2.8699999999999974                   40.18                   40.18
   279   1      4.3049999999999926      41.614999999999995      41.614999999999995
   280   1      2.8699999999999974                   40.18       43.04999999999999
   281   1      4.3049999999999926      41.614999999999995      44.484999999999992
   282   1      2.8699999999999974                   40.18      45.919999999999987
   283   1      4.3049999999999926      41.614999999999995       47.35499999999999
   284   1      2.8699999999999974                   40.18      48.789999999999992
   285   1      4.3049999999999926      41.614999999999995      50.225000000000001
   286   1      2.8699999999999974                   40.18      51.659999999999997
   287   1      4.3049999999999926      41.614999999999995      53.094999999999999
   288   1      2.8699999999999974                   40.18      54.529999999999994
   289   1      4.3049999999999926      41.614999999999995      55.964999999999989
   290   1      2.8699999999999974                   40.18      57.399999999999991
   291   1      4.3049999999999926      41.614999999999995      58.834999999999994
   292   1      2.8699999999999974                   40.18      60.269999999999996
   293   1      4.3049999999999926      41.614999999999995      61.704999999999984
   294   1      2.8699999999999974                   40.18      63.139999999999993
   295   1      4.3049999999999926      41.614999999999995      64.574999999999989
   296   1      4.3049999999999926      41.614999999999995      67.444999999999993
   297   1      4.3049999999999926      44.484999999999992      15.784999999999993
   298   1      4.3049999999999926      44.484999999999992       18.65499999999999
   299   1      2.8699999999999974       43.04999999999999      20.089999999999996
   300   1      4.3049999999999926      44.484999999999992      21.524999999999995
   301   1      2.8699999999999974       43.04999999999999      22.959999999999994
   302   1      4.3049999999999926      44.484999999999992      24.394999999999992
   303   1      2.8699999999999974       43.04999999999999      25.829999999999991
   304   1      4.3049999999999926      44.484999999999992      27.264999999999993
   305   1      2.8699999999999974       43.04999999999999      28.699999999999992
   306   1      4.3049999999999926      44.484999999999992      30.134999999999991
   307   1      2.8699999999999974       43.04999999999999      31.569999999999997
   308   1      4.3049999999999926      44.484999999999992      33.004999999999995
   309   1      2.8699999999999974       43.04999999999999      34.439999999999991
   310   1      4.3049999999999926      44.484999999999992      35.874999999999993
   311   1      2.8699999999999974       43.04999999999999      37.309999999999988
   312   1      4.3049999999999926      44.484999999999992       38.74499999999999
   313   1      2.8699999999999974       43.04999999999999                   40.18
   314   1      4.3049999999999926      44.484999999999992      41.614999999999995
   315   1      2.8699999999999974       43.04999999999999       43.04999999999999
   316   1      4.3049999999999926      44.484999999999992      44.484999999999992
   317   1      2.8699999999999974       43.04999999999999      45.919999999999987
   318   1      4.3049999999999926      44.484999999999992       47.35499999999999
   319   1      2.8699999999999974       43.04999999999999      48.789999999999992
   320   1      4.3049999999999926      44.484999999999992      50.225000000000001
   321   1      2.8699999999999974       43.04999999999999      51.659999999999997
   322   1      4.3049999999999926      44.484999999999992      53.094999999999999
   323   1      2.8699999999999974       43.04999999999999      54.529999999999994
   324   1      4.3049999999999926      44.484999999999992      55.964999999999989
   325   1      2.8699999999999974       43.04999999999999      57.399999999999991
   326   1      4.3049999999999926      44.484999999999992      58.834999999999994
   327   1      2.8699999999999974       43.04999999999999      60.269999999999996
   328   1      4.3049999999999926      44.484999999999992      61.704999999999984
   329   1      4.3049999999999926      44.484999999999992      64.574999999999989
   330   1      4.3049999999999926       47.35499999999999       18.65499999999999
   331   1      4.3049999999999926       47.35499999999999      21.524999999999995
   332   1      2.8699999999999974      45.919999999999987      22.959999999999994
   333   1      4.3049999999999926       47.35499999999999      24.394999999999992
   334   1      2.8699999999999974      45.919999999999987      25.829999999999991
   335   1      4.3049999999999926       47.35499999999999      27.264999999999993
   336   1      2.8699999999999974      45.919999999999987      28.699999999999992
   337   1      4.3049999999999926       47.35499999999999      30.134999999999991
   338   1      2.8699999999999974      45.919999999999987      31.569999999999997
   339   1      4.3049999999999926       47.35499999999999      33.004999999999995
   340   1      2.8699999999999974      45.919999999999987      34.439999999999991
   341   1      4.3049999999999926       47.35499999999999      35.874999999999993
   342   1      2.8699999999999974      45.919999999999987      37.309999999999988
   343   1      4.3049999999999926       47.35499999999999       38.74499999999999
   344   1      2.8699999999999974      45.919999999999987                   40.18
   345   1      4.3049999999999926       47.35499999999999      41.614999999999995
   346   1      2.8699999999999974      45.919999999999987       43.04999999999999
   347   1      4.3049999999999926       47.35499999999999      44.484999999999992
   348   1      2.8699999999999974      45.919999999999987      45.919999999999987
   349   1      4.3049999999999926       47.35499999999999       47.35499999999999
   350   1      2.8699999999999974      45.919999999999987      48.789999999999992
   351   1      4.3049999999999926       47.35499999999999      50.225000000000001
   352   1      2.8699999999999974      45.919999999999987      51.659999999999997
   353   1      4.3049999999999926       47.35499999999999      53.094999999999999
   354   1      2.8699999999999974      45.919999999999987      54.529999999999994
   355   1      4.3049999999999926       47.35499999999999      55.964999999999989
   356   1      2.8699999999999974      45.919999999999987      57.399999999999991
   357   1      4.3049999999999926       47.35499999999999      58.834999999999994
   358   1      4.3049999999999926       47.35499999999999      61.704999999999984