model_files/Fe/Fe_30000/Fe_533/data.Fe_533_fcc_29993 (written by ASE) 

29993 	 atoms 
1  atom types
0.0                     105  xlo xhi
0.0                     105  ylo yhi
0.0                     105  zlo zhi


Atoms 

     1   1      1.4349999999999954      47.354999999999997      50.225000000000001
     2   1      1.4349999999999954      47.354999999999997      53.094999999999992
     3   1      1.4349999999999954      50.225000000000001      47.354999999999997
     4   1      1.4349999999999954      50.225000000000001      50.225000000000001
     5   1      104.99999999999999      48.789999999999992      51.659999999999997
     6   1      1.4349999999999954      50.225000000000001      53.094999999999992
     7   1      1.4349999999999954      50.225000000000001      55.964999999999989
     8   1      1.4349999999999954      53.094999999999992      47.354999999999997
     9   1      104.99999999999999      51.659999999999997      48.789999999999992
    10   1      1.4349999999999954      53.094999999999992      50.225000000000001
    11   1      104.99999999999999      51.659999999999997      51.659999999999997
    12   1      1.4349999999999954      53.094999999999992      53.094999999999992
    13   1      104.99999999999999      51.659999999999997      54.529999999999987
    14   1      1.4349999999999954      53.094999999999992      55.964999999999989
    15   1      1.4349999999999954      55.964999999999989      50.225000000000001
    16   1      104.99999999999999      54.529999999999987      51.659999999999997
    17   1      1.4349999999999954      55.964999999999989      53.094999999999992
    18   1      4.3049999999999926      44.484999999999999      50.225000000000001
    19   1      4.3049999999999926      44.484999999999999      53.094999999999992
    20   1      4.3049999999999926      47.354999999999997      47.354999999999997
    21   1      4.3049999999999926      47.354999999999997      50.225000000000001
    22   1      2.8699999999999974      45.919999999999987      51.659999999999997
    23   1      4.3049999999999926      47.354999999999997      53.094999999999992
    24   1      4.3049999999999926      47.354999999999997      55.964999999999989
    25   1      4.3049999999999926      50.225000000000001      44.484999999999999
    26   1      4.3049999999999926      50.225000000000001      47.354999999999997
    27   1      2.8699999999999974      48.789999999999992      48.789999999999992
    28   1      4.3049999999999926      50.225000000000001      50.225000000000001
    29   1      2.8699999999999974      48.789999999999992      51.659999999999997
    30   1      4.3049999999999926      50.225000000000001      53.094999999999992
    31   1      2.8699999999999974      48.789999999999992      54.529999999999987
    32   1      4.3049999999999926      50.225000000000001      55.964999999999989
    33   1      4.3049999999999926      50.225000000000001      58.835000000000001
    34   1      4.3049999999999926      53.094999999999992      44.484999999999999
    35   1      2.8699999999999974      51.659999999999997      45.919999999999987
    36   1      4.3049999999999926      53.094999999999992      47.354999999999997
    37   1      2.8699999999999974      51.659999999999997      48.789999999999992
    38   1      4.3049999999999926      53.094999999999992      50.225000000000001
    39   1      2.8699999999999974      51.659999999999997      51.659999999999997
    40   1      4.3049999999999926      53.094999999999992      53.094999999999992
    41   1      2.8699999999999974      51.659999999999997      54.529999999999987
    42   1      4.3049999999999926      53.094999999999992      55.964999999999989
    43   1      2.8699999999999974      51.659999999999997      57.399999999999999
    44   1      4.3049999999999926      53.094999999999992      58.835000000000001
    45   1      4.3049999999999926      55.964999999999989      47.354999999999997
    46   1      2.8699999999999974      54.529999999999987      48.789999999999992
    47   1      4.3049999999999926      55.964999999999989      50.225000000000001
    48   1      2.8699999999999974      54.529999999999987      51.659999999999997
    49   1      4.3049999999999926      55.964999999999989      53.094999999999992
    50   1      2.8699999999999974      54.529999999999987      54.529999999999987
    51   1      4.3049999999999926      55.964999999999989      55.964999999999989
    52   1      4.3049999999999926      58.835000000000001      50.225000000000001
    53   1      2.8699999999999974      57.399999999999999      51.659999999999997
    54   1      4.3049999999999926      58.835000000000001      53.094999999999992
    55   1       7.174999999999998       38.74499999999999      50.225000000000001
    56   1       7.174999999999998       38.74499999999999      53.094999999999992
    57   1       7.174999999999998      41.614999999999995      47.354999999999997
    58   1       7.174999999999998      41.614999999999995      50.225000000000001
    59   1      5.7399999999999949                   40.18      51.659999999999997
    60   1       7.174999999999998      41.614999999999995      53.094999999999992
    61   1       7.174999999999998      41.614999999999995      55.964999999999989
    62   1       7.174999999999998      44.484999999999999      44.484999999999999
    63   1       7.174999999999998      44.484999999999999      47.354999999999997
    64   1      5.7399999999999949       43.04999999999999      48.789999999999992
    65   1       7.174999999999998      44.484999999999999      50.225000000000001
    66   1      5.7399999999999949       43.04999999999999      51.659999999999997
    67   1       7.174999999999998      44.484999999999999      53.094999999999992
    68   1      5.7399999999999949       43.04999999999999      54.529999999999987
    69   1       7.174999999999998      44.484999999999999      55.964999999999989
    70   1       7.174999999999998      44.484999999999999      58.835000000000001
    71   1       7.174999999999998      47.354999999999997      41.614999999999995
    72   1       7.174999999999998      47.354999999999997      44.484999999999999
    73   1      5.7399999999999949      45.919999999999987      45.919999999999987
    74   1       7.174999999999998      47.354999999999997      47.354999999999997
    75   1      5.7399999999999949      45.919999999999987      48.789999999999992
    76   1       7.174999999999998      47.354999999999997      50.225000000000001
    77   1      5.7399999999999949      45.919999999999987      51.659999999999997
    78   1       7.174999999999998      47.354999999999997      53.094999999999992
    79   1      5.7399999999999949      45.919999999999987      54.529999999999987
    80   1       7.174999999999998      47.354999999999997      55.964999999999989
    81   1      5.7399999999999949      45.919999999999987      57.399999999999999
    82   1       7.174999999999998      47.354999999999997      58.835000000000001
    83   1       7.174999999999998      47.354999999999997      61.704999999999991
    84   1       7.174999999999998      50.225000000000001       38.74499999999999
    85   1       7.174999999999998      50.225000000000001      41.614999999999995
    86   1      5.7399999999999949      48.789999999999992       43.04999999999999
    87   1       7.174999999999998      50.225000000000001      44.484999999999999
    88   1      5.7399999999999949      48.789999999999992      45.919999999999987
    89   1       7.174999999999998      50.225000000000001      47.354999999999997
    90   1      5.7399999999999949      48.789999999999992      48.789999999999992
    91   1       7.174999999999998      50.225000000000001      50.225000000000001
    92   1      5.7399999999999949      48.789999999999992      51.659999999999997
    93   1       7.174999999999998      50.225000000000001      53.094999999999992
    94   1      5.7399999999999949      48.789999999999992      54.529999999999987
    95   1       7.174999999999998      50.225000000000001      55.964999999999989
    96   1      5.7399999999999949      48.789999999999992      57.399999999999999
    97   1       7.174999999999998      50.225000000000001      58.835000000000001
    98   1      5.7399999999999949      48.789999999999992      60.269999999999996
    99   1       7.174999999999998      50.225000000000001      61.704999999999991
   100   1       7.174999999999998      50.225000000000001      64.575000000000003
   101   1       7.174999999999998      53.094999999999992       38.74499999999999
   102   1      5.7399999999999949      51.659999999999997                   40.18
   103   1       7.174999999999998      53.094999999999992      41.614999999999995
   104   1      5.7399999999999949      51.659999999999997       43.04999999999999
   105   1       7.174999999999998      53.094999999999992      44.484999999999999
   106   1      5.7399999999999949      51.659999999999997      45.919999999999987
   107   1       7.174999999999998      53.094999999999992      47.354999999999997
   108   1      5.7399999999999949      51.659999999999997      48.789999999999992
   109   1       7.174999999999998      53.094999999999992      50.225000000000001
   110   1      5.7399999999999949      51.659999999999997      51.659999999999997
   111   1       7.174999999999998      53.094999999999992      53.094999999999992
   112   1      5.7399999999999949      51.659999999999997      54.529999999999987
   113   1       7.174999999999998      53.094999999999992      55.964999999999989
   114   1      5.7399999999999949      51.659999999999997      57.399999999999999
   115   1       7.174999999999998      53.094999999999992      58.835000000000001
   116   1      5.7399999999999949      51.659999999999997      60.269999999999996
   117   1       7.174999999999998      53.094999999999992      61.704999999999991
   118   1      5.7399999999999949      51.659999999999997      63.139999999999993
   119   1       7.174999999999998      53.094999999999992      64.575000000000003
   120   1       7.174999999999998      55.964999999999989      41.614999999999995
   121   1      5.7399999999999949      54.529999999999987       43.04999999999999
   122   1       7.174999999999998      55.964999999999989      44.484999999999999
   123   1      5.7399999999999949      54.529999999999987      45.919999999999987
   124   1       7.174999999999998      55.964999999999989      47.354999999999997
   125   1      5.7399999999999949      54.529999999999987      48.789999999999992
   126   1       7.174999999999998      55.964999999999989      50.225000000000001
   127   1      5.7399999999999949      54.529999999999987      51.659999999999997
   128   1       7.174999999999998      55.964999999999989      53.094999999999992
   129   1      5.7399999999999949      54.529999999999987      54.529999999999987
   130   1       7.174999999999998      55.964999999999989      55.964999999999989
   131   1      5.7399999999999949      54.529999999999987      57.399999999999999
   132   1       7.174999999999998      55.964999999999989      58.835000000000001
   133   1      5.7399999999999949      54.529999999999987      60.269999999999996
   134   1       7.174999999999998      55.964999999999989      61.704999999999991
   135   1       7.174999999999998      58.835000000000001      44.484999999999999
   136   1      5.7399999999999949      57.399999999999999      45.919999999999987
   137   1       7.174999999999998      58.835000000000001      47.354999999999997
   138   1      5.7399999999999949      57.399999999999999      48.789999999999992
   139   1       7.174999999999998      58.835000000000001      50.225000000000001
   140   1      5.7399999999999949      57.399999999999999      51.659999999999997
   141   1       7.174999999999998      58.835000000000001      53.094999999999992
   142   1      5.7399999999999949      57.399999999999999      54.529999999999987
   143   1       7.174999999999998      58.835000000000001      55.964999999999989
   144   1      5.7399999999999949      57.399999999999999      57.399999999999999
   145   1       7.174999999999998      58.835000000000001      58.835000000000001
   146   1       7.174999999999998      61.704999999999991      47.354999999999997
   147   1      5.7399999999999949      60.269999999999996      48.789999999999992
   148   1       7.174999999999998      61.704999999999991      50.225000000000001
   149   1      5.7399999999999949      60.269999999999996      51.659999999999997
   150   1       7.174999999999998      61.704999999999991      53.094999999999992
   151   1      5.7399999999999949      60.269999999999996      54.529999999999987
   152   1       7.174999999999998      61.704999999999991      55.964999999999989
   153   1       7.174999999999998      64.575000000000003      50.225000000000001
   154   1      5.7399999999999949      63.139999999999993      51.659999999999997
   155   1       7.174999999999998      64.575000000000003      53.094999999999992
   156   1      10.044999999999995      33.004999999999995      50.225000000000001
   157   1      10.044999999999995      33.004999999999995      53.094999999999992
   158   1      10.044999999999995      35.874999999999993      47.354999999999997
   159   1      10.044999999999995      35.874999999999993      50.225000000000001
   160   1      8.6099999999999923      34.439999999999998      51.659999999999997
   161   1      10.044999999999995      35.874999999999993      53.094999999999992
   162   1      10.044999999999995      35.874999999999993      55.964999999999989
   163   1      10.044999999999995       38.74499999999999      44.484999999999999
   164   1      10.044999999999995       38.74499999999999      47.354999999999997
   165   1      8.6099999999999923      37.309999999999995      48.789999999999992
   166   1      10.044999999999995       38.74499999999999      50.225000000000001
   167   1      8.6099999999999923      37.309999999999995      51.659999999999997
   168   1      10.044999999999995       38.74499999999999      53.094999999999992
   169   1      8.6099999999999923      37.309999999999995      54.529999999999987
   170   1      10.044999999999995       38.74499999999999      55.964999999999989
   171   1      10.044999999999995       38.74499999999999      58.835000000000001
   172   1      10.044999999999995      41.614999999999995      41.614999999999995
   173   1      10.044999999999995      41.614999999999995      44.484999999999999
   174   1      8.6099999999999923                   40.18      45.919999999999987
   175   1      10.044999999999995      41.614999999999995      47.354999999999997
   176   1      8.6099999999999923                   40.18      48.789999999999992
   177   1      10.044999999999995      41.614999999999995      50.225000000000001
   178   1      8.6099999999999923                   40.18      51.659999999999997
   179   1      10.044999999999995      41.614999999999995      53.094999999999992
   180   1      8.6099999999999923                   40.18      54.529999999999987
   181   1      10.044999999999995      41.614999999999995      55.964999999999989
   182   1      8.6099999999999923                   40.18      57.399999999999999
   183   1      10.044999999999995      41.614999999999995      58.835000000000001
   184   1      10.044999999999995      41.614999999999995      61.704999999999991
   185   1      10.044999999999995      44.484999999999999       38.74499999999999
   186   1      10.044999999999995      44.484999999999999      41.614999999999995
   187   1      8.6099999999999923       43.04999999999999       43.04999999999999
   188   1      10.044999999999995      44.484999999999999      44.484999999999999
   189   1      8.6099999999999923       43.04999999999999      45.919999999999987
   190   1      10.044999999999995      44.484999999999999      47.354999999999997
   191   1      8.6099999999999923       43.04999999999999      48.789999999999992
   192   1      10.044999999999995      44.484999999999999      50.225000000000001
   193   1      8.6099999999999923       43.04999999999999      51.659999999999997
   194   1      10.044999999999995      44.484999999999999      53.094999999999992
   195   1      8.6099999999999923       43.04999999999999      54.529999999999987
   196   1      10.044999999999995      44.484999999999999      55.964999999999989
   197   1      8.6099999999999923       43.04999999999999      57.399999999999999
   198   1      10.044999999999995      44.484999999999999      58.835000000000001
   199   1      8.6099999999999923       43.04999999999999      60.269999999999996
   200   1      10.044999999999995      44.484999999999999      61.704999999999991
   201   1      10.044999999999995      44.484999999999999      64.575000000000003
   202   1      10.044999999999995      47.354999999999997      35.874999999999993
   203   1      10.044999999999995      47.354999999999997       38.74499999999999
   204   1      8.6099999999999923      45.919999999999987                   40.18
   205   1      10.044999999999995      47.354999999999997      41.614999999999995
   206   1      8.6099999999999923      45.919999999999987       43.04999999999999
   207   1      10.044999999999995      47.354999999999997      44.484999999999999
   208   1      8.6099999999999923      45.919999999999987      45.919999999999987
   209   1      10.044999999999995      47.354999999999997      47.354999999999997
   210   1      8.6099999999999923      45.919999999999987      48.789999999999992
   211   1      10.044999999999995      47.354999999999997      50.225000000000001
   212   1      8.6099999999999923      45.919999999999987      51.659999999999997
   213   1      10.044999999999995      47.354999999999997      53.094999999999992
   214   1      8.6099999999999923      45.919999999999987      54.529999999999987
   215   1      10.044999999999995      47.354999999999997      55.964999999999989
   216   1      8.6099999999999923      45.919999999999987      57.399999999999999
   217   1      10.044999999999995      47.354999999999997      58.835000000000001
   218   1      8.6099999999999923      45.919999999999987      60.269999999999996
   219   1      10.044999999999995      47.354999999999997      61.704999999999991
   220   1      8.6099999999999923      45.919999999999987      63.139999999999993
   221   1      10.044999999999995      47.354999999999997      64.575000000000003
   222   1      10.044999999999995      47.354999999999997      67.444999999999993
   223   1      10.044999999999995      50.225000000000001      33.004999999999995
   224   1      10.044999999999995      50.225000000000001      35.874999999999993
   225   1      8.6099999999999923      48.789999999999992      37.309999999999995
   226   1      10.044999999999995      50.225000000000001       38.74499999999999
   227   1      8.6099999999999923      48.789999999999992                   40.18
   228   1      10.044999999999995      50.225000000000001      41.614999999999995
   229   1      8.6099999999999923      48.789999999999992       43.04999999999999
   230   1      10.044999999999995      50.225000000000001      44.484999999999999
   231   1      8.6099999999999923      48.789999999999992      45.919999999999987
   232   1      10.044999999999995      50.225000000000001      47.354999999999997
   233   1      8.6099999999999923      48.789999999999992      48.789999999999992
   234   1      10.044999999999995      50.225000000000001      50.225000000000001
   235   1      8.6099999999999923      48.789999999999992      51.659999999999997
   236   1      10.044999999999995      50.225000000000001      53.094999999999992
   237   1      8.6099999999999923      48.789999999999992      54.529999999999987
   238   1      10.044999999999995      50.225000000000001      55.964999999999989
   239   1      8.6099999999999923      48.789999999999992      57.399999999999999
   240   1      10.044999999999995      50.225000000000001      58.835000000000001
   241   1      8.6099999999999923      48.789999999999992      60.269999999999996
   242   1      10.044999999999995      50.225000000000001      61.704999999999991
   243   1      8.6099999999999923      48.789999999999992      63.139999999999993
   244   1      10.044999999999995      50.225000000000001      64.575000000000003
   245   1      8.6099999999999923      48.789999999999992      66.009999999999991
   246   1      10.044999999999995      50.225000000000001      67.444999999999993
   247   1      10.044999999999995      50.225000000000001      70.314999999999984
   248   1      10.044999999999995      53.094999999999992      33.004999999999995
   249   1      8.6099999999999923      51.659999999999997      34.439999999999998
   250   1      10.044999999999995      53.094999999999992      35.874999999999993
   251   1      8.6099999999999923      51.659999999999997      37.309999999999995
   252   1      10.044999999999995      53.094999999999992       38.74499999999999
   253   1      8.6099999999999923      51.659999999999997                   40.18
   254   1      10.044999999999995      53.094999999999992      41.614999999999995
   255   1      8.6099999999999923      51.659999999999997       43.04999999999999
   256   1      10.044999999999995      53.094999999999992      44.484999999999999
   257   1      8.6099999999999923      51.659999999999997      45.919999999999987
   258   1      10.044999999999995      53.094999999999992      47.354999999999997
   259   1      8.6099999999999923      51.659999999999997      48.789999999999992
   260   1      10.044999999999995      53.094999999999992      50.225000000000001
   261   1      8.6099999999999923      51.659999999999997      51.659999999999997
   262   1      10.044999999999995      53.094999999999992      53.094999999999992
   263   1      8.6099999999999923      51.659999999999997      54.529999999999987
   264   1      10.044999999999995      53.094999999999992      55.964999999999989
   265   1      8.6099999999999923      51.659999999999997      57.399999999999999
   266   1      10.044999999999995      53.094999999999992      58.835000000000001
   267   1      8.6099999999999923      51.659999999999997      60.269999999999996
   268   1      10.044999999999995      53.094999999999992      61.704999999999991
   269   1      8.6099999999999923      51.659999999999997      63.139999999999993
   270   1      10.044999999999995      53.094999999999992      64.575000000000003
   271   1      8.6099999999999923      51.659999999999997      66.009999999999991
   272   1      10.044999999999995      53.094999999999992      67.444999999999993
   273   1      8.6099999999999923      51.659999999999997      68.879999999999995
   274   1      10.044999999999995      53.094999999999992      70.314999999999984
   275   1      10.044999999999995      55.964999999999989      35.874999999999993
   276   1      8.6099999999999923      54.529999999999987      37.309999999999995
   277   1      10.044999999999995      55.964999999999989       38.74499999999999
   278   1      8.6099999999999923      54.529999999999987                   40.18
   279   1      10.044999999999995      55.964999999999989      41.614999999999995
   280   1      8.6099999999999923      54.529999999999987       43.04999999999999
   281   1      10.044999999999995      55.964999999999989      44.484999999999999
   282   1      8.6099999999999923      54.529999999999987      45.919999999999987
   283   1      10.044999999999995      55.964999999999989      47.354999999999997
   284   1      8.6099999999999923      54.529999999999987      48.789999999999992
   285   1      10.044999999999995      55.964999999999989      50.225000000000001
   286   1      8.6099999999999923      54.529999999999987      51.659999999999997
   287   1      10.044999999999995      55.964999999999989      53.094999999999992
   288   1      8.6099999999999923      54.529999999999987      54.529999999999987
   289   1      10.044999999999995      55.964999999999989      55.964999999999989
   290   1      8.6099999999999923      54.529999999999987      57.399999999999999
   291   1      10.044999999999995      55.964999999999989      58.835000000000001
   292   1      8.6099999999999923      54.529999999999987      60.269999999999996
   293   1      10.044999999999995      55.964999999999989      61.704999999999991
   294   1      8.6099999999999923      54.529999999999987      63.139999999999993
   295   1      10.044999999999995      55.964999999999989      64.575000000000003
   296   1      8.6099999999999923      54.529999999999987      66.009999999999991
   297   1      10.044999999999995      55.964999999999989      67.444999999999993
   298   1      10.044999999999995      58.835000000000001       38.74499999999999
   299   1      8.6099999999999923      57.399999999999999                   40.18
   300   1      10.044999999999995      58.835000000000001      41.614999999999995
   301   1      8.6099999999999923      57.399999999999999       43.04999999999999
   302   1      10.044999999999995      58.835000000000001      44.484999999999999
   303   1      8.6099999999999923      57.399999999999999      45.919999999999987
   304   1      10.044999999999995      58.835000000000001      47.354999999999997
   305   1      8.6099999999999923      57.399999999999999      48.789999999999992
   306   1      10.044999999999995      58.835000000000001      50.225000000000001
   307   1      8.6099999999999923      57.399999999999999      51.659999999999997
   308   1      10.044999999999995      58.835000000000001      53.094999999999992
   309   1      8.6099999999999923      57.399999999999999      54.529999999999987
   310   1      10.044999999999995      58.835000000000001      55.964999999999989
   311   1      8.6099999999999923      57.399999999999999      57.399999999999999
   312   1      10.044999999999995      58.835000000000001      58.835000000000001
   313   1      8.6099999999999923      57.399999999999999      60.269999999999996
   314   1      10.044999999999995      58.835000000000001      61.704999999999991
   315   1      8.6099999999999923      57.399999999999999      63.139999999999993
   316   1      10.044999999999995      58.835000000000001      64.575000000000003
   317   1      10.044999999999995      61.704999999999991      41.614999999999995
   318   1      8.6099999999999923      60.269999999999996       43.04999999999999
   319   1      10.044999999999995      61.704999999999991      44.484999999999999
   320   1      8.6099999999999923      60.269999999999996      45.919999999999987
   321   1      10.044999999999995      61.704999999999991      47.354999999999997
   322   1      8.6099999999999923      60.269999999999996      48.789999999999992
   323   1      10.044999999999995      61.704999999999991      50.225000000000001
   324   1      8.6099999999999923      60.269999999999996      51.659999999999997
   325   1      10.044999999999995      61.704999999999991      53.094999999999992
   326   1      8.6099999999999923      60.269999999999996      54.529999999999987
   327   1      10.044999999999995      61.704999999999991      55.964999999999989
   328   1      8.6099999999999923      60.269999999999996      57.399999999999999
   329   1      10.044999999999995      61.704999999999991      58.835000000000001
   330   1      8.6099999999999923      60.269999999999996      60.269999999999996
   331   1      10.044999999999995      61.704999999999991      61.704999999999991
   332   1      10.044999999999995      64.575000000000003      44.484999999999999
   333   1      8.6099999999999923      63.139999999999993      45.919999999999987
   334   1      10.044999999999995      64.575000000000003      47.354999999999997
   335   1      8.6099999999999923      63.139999999999993      48.789999999999992
   336   1      10.044999999999995      64.575000000000003      50.225000000000001
   337   1      8.6099999999999923      63.139999999999993      51.659999999999997
   338   1      10.044999999999995      64.575000000000003      53.094999999999992
   339   1      8.6099999999999923      63.139999999999993      54.529999999999987
   340   1      10.044999999999995      64.575000000000003      55.964999999999989
   341   1      8.6099999999999923      63.139999999999993      57.399999999999999
   342   1      10.044999999999995      64.575000000000003      58.835000000000001
   343   1      10.044999999999995      67.444999999999993      47.354999999999997
   344   1      8.6099999999999923      66.009999999999991      48.789999999999992
   345   1      10.044999999999995      67.444999999999993      50.225000000000001
   346   1      8.6099999999999923      66.009999999999991      51.659999999999997
   347   1      10.044999999999995      67.444999999999993      53.094999999999992
   348   1      8.6099999999999923      66.009999999999991      54.529999999999987
   349   1      10.044999999999995      67.444999999999993      55.964999999999989
   350   1      10.044999999999995      70.314999999999984      50.225000000000001
   351   1      8.6099999999999923      68.879999999999995      51.659999999999997
   352   1      10.044999999999995      70.314999999999984      53.094999999999992
   353   1      12.914999999999992      30.134999999999991      50.225000000000001
   354   1      12.914999999999992      30.134999999999991      53.094999999999992
   355   1      12.914999999999992      33.004999999999995      47.354999999999997
   356   1      12.914999999999992      33.004999999999995      50.225000000000001
   357   1      11.479999999999997      31.569999999999997      51.659999999999997
   358   1      12.914999999999992      33.004999999999995      53.094999999999992