LAMMPS data file via write_data, version 30 Nov 2020, timestep = 0

30329 atoms
5 atom types

0 91 xlo xhi
0 91 ylo yhi
0 91 zlo zhi

Masses

1 58.7
2 55.8
3 52
4 59
5 63

Atoms # atomic

1 1 0 42.84 44.625 0 0 0
2 3 0 44.625 42.84 0 0 0
5 2 3.5700000000000003 33.915 42.84 0 0 0
6 2 3.5700000000000003 35.7 41.055 0 0 0
8 1 3.5700000000000003 35.7 44.625 0 0 0
10 5 3.5700000000000003 37.485 39.27 0 0 0
11 1 3.5700000000000003 39.27 37.485 0 0 0
12 1 1.7850000000000037 39.27 42.84 0 0 0
13 4 3.5700000000000003 37.485 42.84 0 0 0
14 1 3.5700000000000003 39.27 41.055 0 0 0
15 4 1.7850000000000037 37.485 44.625 0 0 0
18 2 3.5700000000000003 39.27 44.625 0 0 0
22 5 3.5700000000000003 41.055 35.7 0 0 0
23 2 3.5700000000000003 42.84 33.915 0 0 0
24 3 1.7850000000000037 42.84 39.27 0 0 0
25 4 3.5700000000000003 41.055 39.27 0 0 0
26 5 3.5700000000000003 42.84 37.485 0 0 0
27 3 1.7850000000000037 41.055 41.055 0 0 0
28 1 1.7850000000000037 42.84 42.84 0 0 0
29 2 3.5700000000000003 41.055 42.84 0 0 0
30 4 3.5700000000000003 42.84 41.055 0 0 0
31 5 1.7850000000000037 41.055 44.625 0 0 0
34 2 3.5700000000000003 42.84 44.625 0 0 0
42 3 3.5700000000000003 44.625 35.7 0 0 0
44 5 1.7850000000000037 44.625 37.485 0 0 0
46 3 3.5700000000000003 44.625 39.27 0 0 0
48 4 1.7850000000000037 44.625 41.055 0 0 0
50 4 3.5700000000000003 44.625 42.84 0 0 0
52 2 1.7850000000000037 44.625 44.625 0 0 0
90 4 7.140000000000001 24.990000000000002 44.625 0 0 0
91 1 7.140000000000001 26.775000000000006 39.27 0 0 0
92 1 7.140000000000001 28.560000000000002 37.485 0 0 0
93 1 7.140000000000001 26.775000000000006 42.84 0 0 0
94 4 7.140000000000001 28.560000000000002 41.055 0 0 0
96 5 7.140000000000001 28.560000000000002 44.625 0 0 0
100 4 7.140000000000001 30.345000000000002 32.129999999999995 0 0 0
101 1 7.140000000000001 32.129999999999995 30.345000000000002 0 0 0
102 2 7.140000000000001 30.345000000000002 35.7 0 0 0
103 3 7.140000000000001 32.129999999999995 33.915 0 0 0
104 4 5.355000000000005 32.129999999999995 39.27 0 0 0
105 3 7.140000000000001 30.345000000000002 39.27 0 0 0
106 3 7.140000000000001 32.129999999999995 37.485 0 0 0
107 5 5.355000000000005 30.345000000000002 41.055 0 0 0
108 5 5.355000000000005 32.129999999999995 42.84 0 0 0
109 3 7.140000000000001 30.345000000000002 42.84 0 0 0
110 5 7.140000000000001 32.129999999999995 41.055 0 0 0
111 5 5.355000000000005 30.345000000000002 44.625 0 0 0
114 2 7.140000000000001 32.129999999999995 44.625 0 0 0
124 2 7.140000000000001 33.915 32.129999999999995 0 0 0
125 5 7.140000000000001 35.7 30.345000000000002 0 0 0
126 4 5.355000000000005 33.915 33.915 0 0 0
127 2 5.355000000000005 35.7 35.7 0 0 0
128 1 7.140000000000001 33.915 35.7 0 0 0
129 2 7.140000000000001 35.7 33.915 0 0 0
130 5 5.355000000000005 33.915 37.485 0 0 0
131 2 5.355000000000005 35.7 39.27 0 0 0
132 1 7.140000000000001 33.915 39.27 0 0 0
133 5 7.140000000000001 35.7 37.485 0 0 0
134 1 5.355000000000005 33.915 41.055 0 0 0
135 5 5.355000000000005 35.7 42.84 0 0 0
136 3 7.140000000000001 33.915 42.84 0 0 0
137 1 7.140000000000001 35.7 41.055 0 0 0
138 3 5.355000000000005 33.915 44.625 0 0 0
141 4 7.140000000000001 35.7 44.625 0 0 0
154 1 7.140000000000001 37.485 28.560000000000002 0 0 0
155 4 7.140000000000001 39.27 26.775000000000006 0 0 0
156 3 5.355000000000005 39.27 32.129999999999995 0 0 0
157 2 7.140000000000001 37.485 32.129999999999995 0 0 0
158 5 7.140000000000001 39.27 30.345000000000002 0 0 0
159 3 5.355000000000005 37.485 33.915 0 0 0
160 4 5.355000000000005 39.27 35.7 0 0 0
161 5 7.140000000000001 37.485 35.7 0 0 0
162 2 7.140000000000001 39.27 33.915 0 0 0
163 4 5.355000000000005 37.485 37.485 0 0 0
164 4 5.355000000000005 39.27 39.27 0 0 0
165 3 7.140000000000001 37.485 39.27 0 0 0
166 4 7.140000000000001 39.27 37.485 0 0 0
167 4 5.355000000000005 37.485 41.055 0 0 0
168 2 5.355000000000005 39.27 42.84 0 0 0
169 5 7.140000000000001 37.485 42.84 0 0 0
170 2 7.140000000000001 39.27 41.055 0 0 0
171 1 5.355000000000005 37.485 44.625 0 0 0
174 4 7.140000000000001 39.27 44.625 0 0 0
190 5 7.140000000000001 41.055 28.560000000000002 0 0 0
191 1 7.140000000000001 42.84 26.775000000000006 0 0 0
192 1 5.355000000000005 41.055 30.345000000000002 0 0 0
193 2 5.355000000000005 42.84 32.129999999999995 0 0 0
194 2 7.140000000000001 41.055 32.129999999999995 0 0 0
195 5 7.140000000000001 42.84 30.345000000000002 0 0 0
196 3 5.355000000000005 41.055 33.915 0 0 0
197 3 5.355000000000005 42.84 35.7 0 0 0
198 4 7.140000000000001 41.055 35.7 0 0 0
199 1 7.140000000000001 42.84 33.915 0 0 0
200 1 5.355000000000005 41.055 37.485 0 0 0
201 1 5.355000000000005 42.84 39.27 0 0 0
202 5 7.140000000000001 41.055 39.27 0 0 0
203 3 7.140000000000001 42.84 37.485 0 0 0
204 2 5.355000000000005 41.055 41.055 0 0 0
205 2 5.355000000000005 42.84 42.84 0 0 0
206 4 7.140000000000001 41.055 42.84 0 0 0
207 3 7.140000000000001 42.84 41.055 0 0 0
208 2 5.355000000000005 41.055 44.625 0 0 0
211 1 7.140000000000001 42.84 44.625 0 0 0
228 4 7.140000000000001 44.625 24.990000000000002 0 0 0
229 2 7.140000000000001 44.625 28.560000000000002 0 0 0
231 2 5.355000000000005 44.625 30.345000000000002 0 0 0
233 1 7.140000000000001 44.625 32.129999999999995 0 0 0
235 1 5.355000000000005 44.625 33.915 0 0 0
237 3 7.140000000000001 44.625 35.7 0 0 0
239 2 5.355000000000005 44.625 37.485 0 0 0
241 4 7.140000000000001 44.625 39.27 0 0 0
243 2 5.355000000000005 44.625 41.055 0 0 0
245 3 7.140000000000001 44.625 42.84 0 0 0
247 4 5.355000000000005 44.625 44.625 0 0 0
387 1 10.71 16.065 42.84 0 0 0
388 3 10.71 17.85 41.055 0 0 0
390 3 10.71 17.85 44.625 0 0 0
392 2 10.71 19.635 35.7 0 0 0
393 5 10.71 21.42 33.915 0 0 0
394 1 10.71 19.635 39.27 0 0 0
395 3 10.71 21.42 37.485 0 0 0
396 4 8.925000000000004 21.42 42.84 0 0 0
397 3 10.71 19.635 42.84 0 0 0
398 3 10.71 21.42 41.055 0 0 0
399 5 8.925000000000004 19.635 44.625 0 0 0
402 5 10.71 21.42 44.625 0 0 0
408 1 10.71 23.205000000000005 28.560000000000002 0 0 0
409 4 10.71 24.990000000000002 26.775000000000006 0 0 0
410 2 10.71 23.205000000000005 32.129999999999995 0 0 0
411 4 10.71 24.990000000000002 30.345000000000002 0 0 0
412 5 8.925000000000004 24.990000000000002 35.7 0 0 0
413 2 10.71 23.205000000000005 35.7 0 0 0
414 2 10.71 24.990000000000002 33.915 0 0 0
415 4 8.925000000000004 23.205000000000005 37.485 0 0 0
416 3 8.925000000000004 24.990000000000002 39.27 0 0 0
417 1 10.71 23.205000000000005 39.27 0 0 0
418 1 10.71 24.990000000000002 37.485 0 0 0
419 5 8.925000000000004 23.205000000000005 41.055 0 0 0
420 5 8.925000000000004 24.990000000000002 42.84 0 0 0
421 4 10.71 23.205000000000005 42.84 0 0 0
422 1 10.71 24.990000000000002 41.055 0 0 0
423 1 8.925000000000004 23.205000000000005 44.625 0 0 0
426 4 10.71 24.990000000000002 44.625 0 0 0
440 3 10.71 26.775000000000006 24.990000000000002 0 0 0
441 2 10.71 28.560000000000002 23.205000000000005 0 0 0
442 1 8.925000000000004 28.560000000000002 28.560000000000002 0 0 0
443 2 10.71 26.775000000000006 28.560000000000002 0 0 0
444 5 10.71 28.560000000000002 26.775000000000006 0 0 0
445 5 8.925000000000004 26.775000000000006 30.345000000000002 0 0 0
446 4 8.925000000000004 28.560000000000002 32.129999999999995 0 0 0
447 3 10.71 26.775000000000006 32.129999999999995 0 0 0
448 2 10.71 28.560000000000002 30.345000000000002 0 0 0
449 5 8.925000000000004 26.775000000000006 33.915 0 0 0
450 4 8.925000000000004 28.560000000000002 35.7 0 0 0
451 1 10.71 26.775000000000006 35.7 0 0 0
452 3 10.71 28.560000000000002 33.915 0 0 0
453 4 8.925000000000004 26.775000000000006 37.485 0 0 0
454 3 8.925000000000004 28.560000000000002 39.27 0 0 0
455 5 10.71 26.775000000000006 39.27 0 0 0
456 2 10.71 28.560000000000002 37.485 0 0 0
457 1 8.925000000000004 26.775000000000006 41.055 0 0 0
458 1 8.925000000000004 28.560000000000002 42.84 0 0 0
459 2 10.71 26.775000000000006 42.84 0 0 0
460 4 10.71 28.560000000000002 41.055 0 0 0
461 4 8.925000000000004 26.775000000000006 44.625 0 0 0
464 1 10.71 28.560000000000002 44.625 0 0 0
484 2 10.71 30.345000000000002 24.990000000000002 0 0 0
485 2 10.71 32.129999999999995 23.205000000000005 0 0 0
486 2 8.925000000000004 30.345000000000002 26.775000000000006 0 0 0
487 4 8.925000000000004 32.129999999999995 28.560000000000002 0 0 0
488 3 10.71 30.345000000000002 28.560000000000002 0 0 0
489 4 10.71 32.129999999999995 26.775000000000006 0 0 0
490 1 8.925000000000004 30.345000000000002 30.345000000000002 0 0 0
491 2 8.925000000000004 32.129999999999995 32.129999999999995 0 0 0
492 5 10.71 30.345000000000002 32.129999999999995 0 0 0
493 3 10.71 32.129999999999995 30.345000000000002 0 0 0
494 5 8.925000000000004 30.345000000000002 33.915 0 0 0
495 3 8.925000000000004 32.129999999999995 35.7 0 0 0
496 2 10.71 30.345000000000002 35.7 0 0 0
497 2 10.71 32.129999999999995 33.915 0 0 0
498 2 8.925000000000004 30.345000000000002 37.485 0 0 0
499 5 8.925000000000004 32.129999999999995 39.27 0 0 0
500 4 10.71 30.345000000000002 39.27 0 0 0
501 1 10.71 32.129999999999995 37.485 0 0 0
502 5 8.925000000000004 30.345000000000002 41.055 0 0 0
503 1 8.925000000000004 32.129999999999995 42.84 0 0 0
504 1 10.71 30.345000000000002 42.84 0 0 0
505 3 10.71 32.129999999999995 41.055 0 0 0
506 4 8.925000000000004 30.345000000000002 44.625 0 0 0
509 4 10.71 32.129999999999995 44.625 0 0 0
530 5 10.71 33.915 21.42 0 0 0
531 1 10.71 35.7 19.635 0 0 0
532 4 8.925000000000004 35.7 24.990000000000002 0 0 0
533 3 10.71 33.915 24.990000000000002 0 0 0
534 5 10.71 35.7 23.205000000000005 0 0 0
535 5 8.925000000000004 33.915 26.775000000000006 0 0 0
536 3 8.925000000000004 35.7 28.560000000000002 0 0 0
537 2 10.71 33.915 28.560000000000002 0 0 0
538 1 10.71 35.7 26.775000000000006 0 0 0
539 2 8.925000000000004 33.915 30.345000000000002 0 0 0
540 2 8.925000000000004 35.7 32.129999999999995 0 0 0
541 1 10.71 33.915 32.129999999999995 0 0 0
542 5 10.71 35.7 30.345000000000002 0 0 0
543 4 8.925000000000004 33.915 33.915 0 0 0
544 3 8.925000000000004 35.7 35.7 0 0 0
545 5 10.71 33.915 35.7 0 0 0
546 4 10.71 35.7 33.915 0 0 0
547 1 8.925000000000004 33.915 37.485 0 0 0
548 1 8.925000000000004 35.7 39.27 0 0 0
549 5 10.71 33.915 39.27 0 0 0
550 4 10.71 35.7 37.485 0 0 0
551 3 8.925000000000004 33.915 41.055 0 0 0
552 4 8.925000000000004 35.7 42.84 0 0 0
553 4 10.71 33.915 42.84 0 0 0
554 5 10.71 35.7 41.055 0 0 0
555 4 8.925000000000004 33.915 44.625 0 0 0
558 5 10.71 35.7 44.625 0 0 0
582 1 10.71 37.485 21.42 0 0 0
583 4 10.71 39.27 19.635 0 0 0
584 1 8.925000000000004 37.485 23.205000000000005 0 0 0
585 4 8.925000000000004 39.27 24.990000000000002 0 0 0
586 1 10.71 37.485 24.990000000000002 0 0 0
587 2 10.71 39.27 23.205000000000005 0 0 0
588 3 8.925000000000004 37.485 26.775000000000006 0 0 0
589 1 8.925000000000004 39.27 28.560000000000002 0 0 0
590 5 10.71 37.485 28.560000000000002 0 0 0
591 5 10.71 39.27 26.775000000000006 0 0 0
592 5 8.925000000000004 37.485 30.345000000000002 0 0 0
593 2 8.925000000000004 39.27 32.129999999999995 0 0 0
594 1 10.71 37.485 32.129999999999995 0 0 0
595 1 10.71 39.27 30.345000000000002 0 0 0
596 1 8.925000000000004 37.485 33.915 0 0 0
597 5 8.925000000000004 39.27 35.7 0 0 0
598 1 10.71 37.485 35.7 0 0 0
599 5 10.71 39.27 33.915 0 0 0
600 5 8.925000000000004 37.485 37.485 0 0 0
601 2 8.925000000000004 39.27 39.27 0 0 0
602 4 10.71 37.485 39.27 0 0 0
603 2 10.71 39.27 37.485 0 0 0
604 3 8.925000000000004 37.485 41.055 0 0 0
605 1 8.925000000000004 39.27 42.84 0 0 0
606 3 10.71 37.485 42.84 0 0 0
607 1 10.71 39.27 41.055 0 0 0
608 5 8.925000000000004 37.485 44.625 0 0 0
611 4 10.71 39.27 44.625 0 0 0
636 5 10.71 41.055 17.85 0 0 0
637 2 10.71 42.84 16.065 0 0 0
638 4 8.925000000000004 42.84 21.42 0 0 0
639 3 10.71 41.055 21.42 0 0 0
640 1 10.71 42.84 19.635 0 0 0
641 5 8.925000000000004 41.055 23.205000000000005 0 0 0
642 2 8.925000000000004 42.84 24.990000000000002 0 0 0
643 2 10.71 41.055 24.990000000000002 0 0 0
644 3 10.71 42.84 23.205000000000005 0 0 0
645 1 8.925000000000004 41.055 26.775000000000006 0 0 0
646 5 8.925000000000004 42.84 28.560000000000002 0 0 0
647 3 10.71 41.055 28.560000000000002 0 0 0
648 4 10.71 42.84 26.775000000000006 0 0 0
649 2 8.925000000000004 41.055 30.345000000000002 0 0 0
650 4 8.925000000000004 42.84 32.129999999999995 0 0 0
651 1 10.71 41.055 32.129999999999995 0 0 0
652 1 10.71 42.84 30.345000000000002 0 0 0
653 5 8.925000000000004 41.055 33.915 0 0 0
654 4 8.925000000000004 42.84 35.7 0 0 0
655 5 10.71 41.055 35.7 0 0 0
656 1 10.71 42.84 33.915 0 0 0
657 4 8.925000000000004 41.055 37.485 0 0 0
658 2 8.925000000000004 42.84 39.27 0 0 0
659 4 10.71 41.055 39.27 0 0 0
660 1 10.71 42.84 37.485 0 0 0
661 5 8.925000000000004 41.055 41.055 0 0 0
662 2 8.925000000000004 42.84 42.84 0 0 0
663 1 10.71 41.055 42.84 0 0 0
664 2 10.71 42.84 41.055 0 0 0
665 3 8.925000000000004 41.055 44.625 0 0 0
668 2 10.71 42.84 44.625 0 0 0
696 3 10.71 44.625 17.85 0 0 0
698 2 8.925000000000004 44.625 19.635 0 0 0
700 4 10.71 44.625 21.42 0 0 0
702 5 8.925000000000004 44.625 23.205000000000005 0 0 0
704 2 10.71 44.625 24.990000000000002 0 0 0
706 3 8.925000000000004 44.625 26.775000000000006 0 0 0
708 3 10.71 44.625 28.560000000000002 0 0 0
710 1 8.925000000000004 44.625 30.345000000000002 0 0 0
712 1 10.71 44.625 32.129999999999995 0 0 0
714 1 8.925000000000004 44.625 33.915 0 0 0
716 2 10.71 44.625 35.7 0 0 0
718 3 8.925000000000004 44.625 37.485 0 0 0
720 3 10.71 44.625 39.27 0 0 0
722 2 8.925000000000004 44.625 41.055 0 0 0
724 2 10.71 44.625 42.84 0 0 0
726 5 8.925000000000004 44.625 44.625 0 0 0
1036 1 14.280000000000001 14.280000000000001 30.345000000000002 0 0 0
1037 2 14.280000000000001 14.280000000000001 33.915 0 0 0
1038 1 12.495000000000006 14.280000000000001 39.27 0 0 0
1039 1 14.280000000000001 12.495000000000006 39.27 0 0 0
1040 3 14.280000000000001 14.280000000000001 37.485 0 0 0
1041 5 12.495000000000006 12.495000000000006 41.055 0 0 0
1042 3 12.495000000000006 14.280000000000001 42.84 0 0 0
1043 5 14.280000000000001 12.495000000000006 42.84 0 0 0
1044 5 14.280000000000001 14.280000000000001 41.055 0 0 0
1045 5 12.495000000000006 12.495000000000006 44.625 0 0 0
1048 2 14.280000000000001 14.280000000000001 44.625 0 0 0
1056 5 14.280000000000001 16.065 24.990000000000002 0 0 0
1057 5 14.280000000000001 17.85 23.205000000000005 0 0 0
1058 5 14.280000000000001 16.065 28.560000000000002 0 0 0
1059 5 14.280000000000001 17.85 26.775000000000006 0 0 0
1060 4 12.495000000000006 17.85 32.129999999999995 0 0 0
1061 4 14.280000000000001 16.065 32.129999999999995 0 0 0
1062 2 14.280000000000001 17.85 30.345000000000002 0 0 0
1063 3 12.495000000000006 16.065 33.915 0 0 0
1064 5 12.495000000000006 17.85 35.7 0 0 0
1065 5 14.280000000000001 16.065 35.7 0 0 0
1066 5 14.280000000000001 17.85 33.915 0 0 0
1067 3 12.495000000000006 16.065 37.485 0 0 0
1068 1 12.495000000000006 17.85 39.27 0 0 0
1069 1 14.280000000000001 16.065 39.27 0 0 0
1070 4 14.280000000000001 17.85 37.485 0 0 0
1071 4 12.495000000000006 16.065 41.055 0 0 0
1072 1 12.495000000000006 17.85 42.84 0 0 0
1073 2 14.280000000000001 16.065 42.84 0 0 0
1074 4 14.280000000000001 17.85 41.055 0 0 0
1075 2 12.495000000000006 16.065 44.625 0 0 0
1078 5 14.280000000000001 17.85 44.625 0 0 0
1096 4 14.280000000000001 19.635 21.42 0 0 0
1097 2 14.280000000000001 21.42 19.635 0 0 0
1098 3 12.495000000000006 21.42 24.990000000000002 0 0 0
1099 2 14.280000000000001 19.635 24.990000000000002 0 0 0
1100 3 14.280000000000001 21.42 23.205000000000005 0 0 0
1101 1 12.495000000000006 19.635 26.775000000000006 0 0 0
1102 4 12.495000000000006 21.42 28.560000000000002 0 0 0
1103 3 14.280000000000001 19.635 28.560000000000002 0 0 0
1104 2 14.280000000000001 21.42 26.775000000000006 0 0 0
1105 3 12.495000000000006 19.635 30.345000000000002 0 0 0
1106 3 12.495000000000006 21.42 32.129999999999995 0 0 0
1107 5 14.280000000000001 19.635 32.129999999999995 0 0 0
1108 1 14.280000000000001 21.42 30.345000000000002 0 0 0
1109 5 12.495000000000006 19.635 33.915 0 0 0
1110 5 12.495000000000006 21.42 35.7 0 0 0
1111 2 14.280000000000001 19.635 35.7 0 0 0
1112 3 14.280000000000001 21.42 33.915 0 0 0
1113 4 12.495000000000006 19.635 37.485 0 0 0
1114 1 12.495000000000006 21.42 39.27 0 0 0
1115 3 14.280000000000001 19.635 39.27 0 0 0
1116 3 14.280000000000001 21.42 37.485 0 0 0
1117 4 12.495000000000006 19.635 41.055 0 0 0
1118 1 12.495000000000006 21.42 42.84 0 0 0
1119 3 14.280000000000001 19.635 42.84 0 0 0
1120 3 14.280000000000001 21.42 41.055 0 0 0
1121 2 12.495000000000006 19.635 44.625 0 0 0
1124 1 14.280000000000001 21.42 44.625 0 0 0
1148 4 14.280000000000001 23.205000000000005 17.85 0 0 0
1149 4 14.280000000000001 24.990000000000002 16.065 0 0 0
1150 1 12.495000000000006 24.990000000000002 21.42 0 0 0
1151 5 14.280000000000001 23.205000000000005 21.42 0 0 0
1152 4 14.280000000000001 24.990000000000002 19.635 0 0 0
1153 1 12.495000000000006 23.205000000000005 23.205000000000005 0 0 0
1154 2 12.495000000000006 24.990000000000002 24.990000000000002 0 0 0
1155 3 14.280000000000001 23.205000000000005 24.990000000000002 0 0 0
1156 3 14.280000000000001 24.990000000000002 23.205000000000005 0 0 0
1157 1 12.495000000000006 23.205000000000005 26.775000000000006 0 0 0
1158 4 12.495000000000006 24.990000000000002 28.560000000000002 0 0 0
1159 5 14.280000000000001 23.205000000000005 28.560000000000002 0 0 0
1160 5 14.280000000000001 24.990000000000002 26.775000000000006 0 0 0
1161 5 12.495000000000006 23.205000000000005 30.345000000000002 0 0 0
1162 2 12.495000000000006 24.990000000000002 32.129999999999995 0 0 0
1163 4 14.280000000000001 23.205000000000005 32.129999999999995 0 0 0
1164 2 14.280000000000001 24.990000000000002 30.345000000000002 0 0 0
1165 4 12.495000000000006 23.205000000000005 33.915 0 0 0
1166 3 12.495000000000006 24.990000000000002 35.7 0 0 0
1167 1 14.280000000000001 23.205000000000005 35.7 0 0 0
1168 5 14.280000000000001 24.990000000000002 33.915 0 0 0
1169 4 12.495000000000006 23.205000000000005 37.485 0 0 0
1170 3 12.495000000000006 24.990000000000002 39.27 0 0 0
1171 4 14.280000000000001 23.205000000000005 39.27 0 0 0
1172 3 14.280000000000001 24.990000000000002 37.485 0 0 0
1173 2 12.495000000000006 23.205000000000005 41.055 0 0 0
1174 1 12.495000000000006 24.990000000000002 42.84 0 0 0
1175 3 14.280000000000001 23.205000000000005 42.84 0 0 0
1176 1 14.280000000000001 24.990000000000002 41.055 0 0 0
1177 4 12.495000000000006 23.205000000000005 44.625 0 0 0
1180 3 14.280000000000001 24.990000000000002 44.625 0 0 0
1208 4 14.280000000000001 26.775000000000006 17.85 0 0 0
1209 3 14.280000000000001 28.560000000000002 16.065 0 0 0
1210 1 12.495000000000006 26.775000000000006 19.635 0 0 0
1211 2 12.495000000000006 28.560000000000002 21.42 0 0 0
1212 1 14.280000000000001 26.775000000000006 21.42 0 0 0
1213 5 14.280000000000001 28.560000000000002 19.635 0 0 0
1214 1 12.495000000000006 26.775000000000006 23.205000000000005 0 0 0
1215 2 12.495000000000006 28.560000000000002 24.990000000000002 0 0 0
1216 4 14.280000000000001 26.775000000000006 24.990000000000002 0 0 0
1217 1 14.280000000000001 28.560000000000002 23.205000000000005 0 0 0
1218 5 12.495000000000006 26.775000000000006 26.775000000000006 0 0 0
1219 3 12.495000000000006 28.560000000000002 28.560000000000002 0 0 0
1220 3 14.280000000000001 26.775000000000006 28.560000000000002 0 0 0
1221 3 14.280000000000001 28.560000000000002 26.775000000000006 0 0 0
1222 3 12.495000000000006 26.775000000000006 30.345000000000002 0 0 0
1223 5 12.495000000000006 28.560000000000002 32.129999999999995 0 0 0
1224 4 14.280000000000001 26.775000000000006 32.129999999999995 0 0 0
1225 5 14.280000000000001 28.560000000000002 30.345000000000002 0 0 0
1226 1 12.495000000000006 26.775000000000006 33.915 0 0 0
1227 3 12.495000000000006 28.560000000000002 35.7 0 0 0
1228 4 14.280000000000001 26.775000000000006 35.7 0 0 0
1229 4 14.280000000000001 28.560000000000002 33.915 0 0 0
1230 3 12.495000000000006 26.775000000000006 37.485 0 0 0
1231 4 12.495000000000006 28.560000000000002 39.27 0 0 0
1232 2 14.280000000000001 26.775000000000006 39.27 0 0 0
1233 1 14.280000000000001 28.560000000000002 37.485 0 0 0
1234 5 12.495000000000006 26.775000000000006 41.055 0 0 0
1235 3 12.495000000000006 28.560000000000002 42.84 0 0 0
1236 1 14.280000000000001 26.775000000000006 42.84 0 0 0
1237 4 14.280000000000001 28.560000000000002 41.055 0 0 0
1238 4 12.495000000000006 26.775000000000006 44.625 0 0 0
1241 1 14.280000000000001 28.560000000000002 44.625 0 0 0
1270 4 14.280000000000001 30.345000000000002 14.280000000000001 0 0 0
1271 1 12.495000000000006 32.129999999999995 17.85 0 0 0
1272 3 14.280000000000001 30.345000000000002 17.85 0 0 0
1273 5 14.280000000000001 32.129999999999995 16.065 0 0 0
1274 1 12.495000000000006 30.345000000000002 19.635 0 0 0
1275 4 12.495000000000006 32.129999999999995 21.42 0 0 0
1276 5 14.280000000000001 30.345000000000002 21.42 0 0 0
1277 3 14.280000000000001 32.129999999999995 19.635 0 0 0
1278 3 12.495000000000006 30.345000000000002 23.205000000000005 0 0 0
1279 4 12.495000000000006 32.129999999999995 24.990000000000002 0 0 0
1280 4 14.280000000000001 30.345000000000002 24.990000000000002 0 0 0
1281 3 14.280000000000001 32.129999999999995 23.205000000000005 0 0 0
1282 1 12.495000000000006 30.345000000000002 26.775000000000006 0 0 0
1283 5 12.495000000000006 32.129999999999995 28.560000000000002 0 0 0
1284 3 14.280000000000001 30.345000000000002 28.560000000000002 0 0 0
1285 4 14.280000000000001 32.129999999999995 26.775000000000006 0 0 0
1286 1 12.495000000000006 30.345000000000002 30.345000000000002 0 0 0
1287 5 12.495000000000006 32.129999999999995 32.129999999999995 0 0 0
1288 2 14.280000000000001 30.345000000000002 32.129999999999995 0 0 0
1289 1 14.280000000000001 32.129999999999995 30.345000000000002 0 0 0
1290 1 12.495000000000006 30.345000000000002 33.915 0 0 0
1291 3 12.495000000000006 32.129999999999995 35.7 0 0 0
1292 2 14.280000000000001 30.345000000000002 35.7 0 0 0
1293 4 14.280000000000001 32.129999999999995 33.915 0 0 0
1294 2 12.495000000000006 30.345000000000002 37.485 0 0 0
1295 3 12.495000000000006 32.129999999999995 39.27 0 0 0
1296 3 14.280000000000001 30.345000000000002 39.27 0 0 0
1297 4 14.280000000000001 32.129999999999995 37.485 0 0 0
1298 3 12.495000000000006 30.345000000000002 41.055 0 0 0
1299 4 12.495000000000006 32.129999999999995 42.84 0 0 0
1300 5 14.280000000000001 30.345000000000002 42.84 0 0 0
1301 3 14.280000000000001 32.129999999999995 41.055 0 0 0
1302 3 12.495000000000006 30.345000000000002 44.625 0 0 0
1305 3 14.280000000000001 32.129999999999995 44.625 0 0 0
1336 4 14.280000000000001 33.915 14.280000000000001 0 0 0
1337 1 12.495000000000006 33.915 16.065 0 0 0
1338 2 12.495000000000006 35.7 17.85 0 0 0
1339 1 14.280000000000001 33.915 17.85 0 0 0
1340 1 14.280000000000001 35.7 16.065 0 0 0
1341 4 12.495000000000006 33.915 19.635 0 0 0
1342 5 12.495000000000006 35.7 21.42 0 0 0
1343 1 14.280000000000001 33.915 21.42 0 0 0
1344 1 14.280000000000001 35.7 19.635 0 0 0
1345 4 12.495000000000006 33.915 23.205000000000005 0 0 0
1346 4 12.495000000000006 35.7 24.990000000000002 0 0 0
1347 3 14.280000000000001 33.915 24.990000000000002 0 0 0
1348 1 14.280000000000001 35.7 23.205000000000005 0 0 0
1349 2 12.495000000000006 33.915 26.775000000000006 0 0 0
1350 5 12.495000000000006 35.7 28.560000000000002 0 0 0
1351 5 14.280000000000001 33.915 28.560000000000002 0 0 0
1352 5 14.280000000000001 35.7 26.775000000000006 0 0 0
1353 1 12.495000000000006 33.915 30.345000000000002 0 0 0
1354 4 12.495000000000006 35.7 32.129999999999995 0 0 0
1355 1 14.280000000000001 33.915 32.129999999999995 0 0 0
1356 2 14.280000000000001 35.7 30.345000000000002 0 0 0
1357 3 12.495000000000006 33.915 33.915 0 0 0
1358 1 12.495000000000006 35.7 35.7 0 0 0
1359 2 14.280000000000001 33.915 35.7 0 0 0
1360 5 14.280000000000001 35.7 33.915 0 0 0
1361 3 12.495000000000006 33.915 37.485 0 0 0
1362 5 12.495000000000006 35.7 39.27 0 0 0
1363 3 14.280000000000001 33.915 39.27 0 0 0
1364 5 14.280000000000001 35.7 37.485 0 0 0
1365 1 12.495000000000006 33.915 41.055 0 0 0
1366 3 12.495000000000006 35.7 42.84 0 0 0
1367 1 14.280000000000001 33.915 42.84 0 0 0
1368 1 14.280000000000001 35.7 41.055 0 0 0
1369 4 12.495000000000006 33.915 44.625 0 0 0
1372 4 14.280000000000001 35.7 44.625 0 0 0
1404 1 12.495000000000006 39.27 14.280000000000001 0 0 0
1405 4 14.280000000000001 37.485 14.280000000000001 0 0 0
1406 1 14.280000000000001 39.27 12.495000000000006 0 0 0
1407 5 12.495000000000006 37.485 16.065 0 0 0
1408 3 12.495000000000006 39.27 17.85 0 0 0
1409 1 14.280000000000001 37.485 17.85 0 0 0
1410 1 14.280000000000001 39.27 16.065 0 0 0
1411 2 12.495000000000006 37.485 19.635 0 0 0
1412 4 12.495000000000006 39.27 21.42 0 0 0
1413 1 14.280000000000001 37.485 21.42 0 0 0
1414 4 14.280000000000001 39.27 19.635 0 0 0
1415 5 12.495000000000006 37.485 23.205000000000005 0 0 0
1416 3 12.495000000000006 39.27 24.990000000000002 0 0 0
1417 2 14.280000000000001 37.485 24.990000000000002 0 0 0
1418 1 14.280000000000001 39.27 23.205000000000005 0 0 0
1419 5 12.495000000000006 37.485 26.775000000000006 0 0 0
1420 1 12.495000000000006 39.27 28.560000000000002 0 0 0
1421 5 14.280000000000001 37.485 28.560000000000002 0 0 0
1422 4 14.280000000000001 39.27 26.775000000000006 0 0 0
1423 1 12.495000000000006 37.485 30.345000000000002 0 0 0
1424 1 12.495000000000006 39.27 32.129999999999995 0 0 0
1425 5 14.280000000000001 37.485 32.129999999999995 0 0 0
1426 3 14.280000000000001 39.27 30.345000000000002 0 0 0
1427 5 12.495000000000006 37.485 33.915 0 0 0
1428 3 12.495000000000006 39.27 35.7 0 0 0
1429 4 14.280000000000001 37.485 35.7 0 0 0
1430 4 14.280000000000001 39.27 33.915 0 0 0
1431 3 12.495000000000006 37.485 37.485 0 0 0
1432 5 12.495000000000006 39.27 39.27 0 0 0
1433 3 14.280000000000001 37.485 39.27 0 0 0
1434 1 14.280000000000001 39.27 37.485 0 0 0
1435 2 12.495000000000006 37.485 41.055 0 0 0
1436 4 12.495000000000006 39.27 42.84 0 0 0
1437 4 14.280000000000001 37.485 42.84 0 0 0
1438 4 14.280000000000001 39.27 41.055 0 0 0
1439 5 12.495000000000006 37.485 44.625 0 0 0
1442 1 14.280000000000001 39.27 44.625 0 0 0
1476 2 12.495000000000006 41.055 12.495000000000006 0 0 0
1477 3 12.495000000000006 42.84 14.280000000000001 0 0 0
1478 1 14.280000000000001 41.055 14.280000000000001 0 0 0
1479 3 14.280000000000001 42.84 12.495000000000006 0 0 0
1480 4 12.495000000000006 41.055 16.065 0 0 0
1481 3 12.495000000000006 42.84 17.85 0 0 0
1482 3 14.280000000000001 41.055 17.85 0 0 0
1483 2 14.280000000000001 42.84 16.065 0 0 0
1484 1 12.495000000000006 41.055 19.635 0 0 0
1485 4 12.495000000000006 42.84 21.42 0 0 0
1486 2 14.280000000000001 41.055 21.42 0 0 0
1487 2 14.280000000000001 42.84 19.635 0 0 0
1488 5 12.495000000000006 41.055 23.205000000000005 0 0 0
1489 4 12.495000000000006 42.84 24.990000000000002 0 0 0
1490 2 14.280000000000001 41.055 24.990000000000002 0 0 0
1491 5 14.280000000000001 42.84 23.205000000000005 0 0 0
1492 5 12.495000000000006 41.055 26.775000000000006 0 0 0
1493 4 12.495000000000006 42.84 28.560000000000002 0 0 0
1494 1 14.280000000000001 41.055 28.560000000000002 0 0 0
1495 4 14.280000000000001 42.84 26.775000000000006 0 0 0
1496 5 12.495000000000006 41.055 30.345000000000002 0 0 0
1497 2 12.495000000000006 42.84 32.129999999999995 0 0 0
1498 2 14.280000000000001 41.055 32.129999999999995 0 0 0
1499 2 14.280000000000001 42.84 30.345000000000002 0 0 0
1500 3 12.495000000000006 41.055 33.915 0 0 0
1501 3 12.495000000000006 42.84 35.7 0 0 0
1502 3 14.280000000000001 41.055 35.7 0 0 0
1503 3 14.280000000000001 42.84 33.915 0 0 0
1504 2 12.495000000000006 41.055 37.485 0 0 0
1505 4 12.495000000000006 42.84 39.27 0 0 0
1506 5 14.280000000000001 41.055 39.27 0 0 0
1507 4 14.280000000000001 42.84 37.485 0 0 0
1508 3 12.495000000000006 41.055 41.055 0 0 0
1509 1 12.495000000000006 42.84 42.84 0 0 0
1510 2 14.280000000000001 41.055 42.84 0 0 0
1511 3 14.280000000000001 42.84 41.055 0 0 0
1512 2 12.495000000000006 41.055 44.625 0 0 0
1515 3 14.280000000000001 42.84 44.625 0 0 0
1550 5 12.495000000000006 44.625 12.495000000000006 0 0 0
1552 5 14.280000000000001 44.625 14.280000000000001 0 0 0
1554 4 12.495000000000006 44.625 16.065 0 0 0
1556 5 14.280000000000001 44.625 17.85 0 0 0
1558 3 12.495000000000006 44.625 19.635 0 0 0
1560 2 14.280000000000001 44.625 21.42 0 0 0
1562 1 12.495000000000006 44.625 23.205000000000005 0 0 0
1564 1 14.280000000000001 44.625 24.990000000000002 0 0 0
1566 1 12.495000000000006 44.625 26.775000000000006 0 0 0
1568 5 14.280000000000001 44.625 28.560000000000002 0 0 0
1570 4 12.495000000000006 44.625 30.345000000000002 0 0 0
1572 3 14.280000000000001 44.625 32.129999999999995 0 0 0
1574 2 12.495000000000006 44.625 33.915 0 0 0
1576 3 14.280000000000001 44.625 35.7 0 0 0
1578 5 12.495000000000006 44.625 37.485 0 0 0
1580 2 14.280000000000001 44.625 39.27 0 0 0
1582 4 12.495000000000006 44.625 41.055 0 0 0
1584 5 14.280000000000001 44.625 42.84 0 0 0
1586 4 12.495000000000006 44.625 44.625 0 0 0
2101 3 16.065 10.71 42.84 0 0 0
2102 1 17.85 10.71 41.055 0 0 0
2104 5 17.85 10.71 44.625 0 0 0
2106 2 16.065 14.280000000000001 24.990000000000002 0 0 0
2107 4 17.85 14.280000000000001 23.205000000000005 0 0 0
2108 4 16.065 14.280000000000001 28.560000000000002 0 0 0
2109 2 17.85 14.280000000000001 26.775000000000006 0 0 0
2110 2 16.065 14.280000000000001 32.129999999999995 0 0 0
2111 4 17.85 12.495000000000006 32.129999999999995 0 0 0
2112 1 17.85 14.280000000000001 30.345000000000002 0 0 0
2113 5 16.065 12.495000000000006 33.915 0 0 0
2114 2 16.065 14.280000000000001 35.7 0 0 0
2115 3 17.85 12.495000000000006 35.7 0 0 0
2116 1 17.85 14.280000000000001 33.915 0 0 0
2117 5 16.065 12.495000000000006 37.485 0 0 0
2118 5 16.065 14.280000000000001 39.27 0 0 0
2119 5 17.85 12.495000000000006 39.27 0 0 0
2120 4 17.85 14.280000000000001 37.485 0 0 0
2121 4 16.065 12.495000000000006 41.055 0 0 0
2122 2 16.065 14.280000000000001 42.84 0 0 0