model_files/NiFeCrCoCu/NiFeCrCoCu_30000/NiFeCrCoCu_521/NiFeCrCoCu_521_fcc_30329_temp.data (written by ASE) 

30329 	 atoms 
5  atom types
0.0                      91  xlo xhi
0.0                      91  ylo yhi
0.0                      91  zlo zhi


Atoms 

     1   1                       0      42.840000000000003                  44.625
     2   1                       0                  44.625      42.840000000000003
     3   1                       0                  44.625      46.410000000000004
     4   1                       0      46.410000000000004                  44.625
     5   1      3.5700000000000003      33.914999999999999      42.840000000000003
     6   1      3.5700000000000003      35.700000000000003                  41.055
     7   1      3.5700000000000003      33.914999999999999      46.410000000000004
     8   1      3.5700000000000003      35.700000000000003                  44.625
     9   1      3.5700000000000003      35.700000000000003      48.195000000000007
    10   1      3.5700000000000003      37.484999999999999      39.270000000000003
    11   1      3.5700000000000003      39.270000000000003      37.484999999999999
    12   1      1.7850000000000037      39.270000000000003      42.840000000000003
    13   1      3.5700000000000003      37.484999999999999      42.840000000000003
    14   1      3.5700000000000003      39.270000000000003                  41.055
    15   1      1.7850000000000037      37.484999999999999                  44.625
    16   1      1.7850000000000037      39.270000000000003      46.410000000000004
    17   1      3.5700000000000003      37.484999999999999      46.410000000000004
    18   1      3.5700000000000003      39.270000000000003                  44.625
    19   1      3.5700000000000003      37.484999999999999      49.979999999999997
    20   1      3.5700000000000003      39.270000000000003      48.195000000000007
    21   1      3.5700000000000003      39.270000000000003      51.765000000000001
    22   1      3.5700000000000003                  41.055      35.700000000000003
    23   1      3.5700000000000003      42.840000000000003      33.914999999999999
    24   1      1.7850000000000037      42.840000000000003      39.270000000000003
    25   1      3.5700000000000003                  41.055      39.270000000000003
    26   1      3.5700000000000003      42.840000000000003      37.484999999999999
    27   1      1.7850000000000037                  41.055                  41.055
    28   1      1.7850000000000037      42.840000000000003      42.840000000000003
    29   1      3.5700000000000003                  41.055      42.840000000000003
    30   1      3.5700000000000003      42.840000000000003                  41.055
    31   1      1.7850000000000037                  41.055                  44.625
    32   1      1.7850000000000037      42.840000000000003      46.410000000000004
    33   1      3.5700000000000003                  41.055      46.410000000000004
    34   1      3.5700000000000003      42.840000000000003                  44.625
    35   1      1.7850000000000037                  41.055      48.195000000000007
    36   1      1.7850000000000037      42.840000000000003      49.979999999999997
    37   1      3.5700000000000003                  41.055      49.979999999999997
    38   1      3.5700000000000003      42.840000000000003      48.195000000000007
    39   1      3.5700000000000003                  41.055      53.550000000000004
    40   1      3.5700000000000003      42.840000000000003      51.765000000000001
    41   1      3.5700000000000003      42.840000000000003      55.335000000000008
    42   1      3.5700000000000003                  44.625      35.700000000000003
    43   1      3.5700000000000003      46.410000000000004      33.914999999999999
    44   1      1.7850000000000037                  44.625      37.484999999999999
    45   1      1.7850000000000037      46.410000000000004      39.270000000000003
    46   1      3.5700000000000003                  44.625      39.270000000000003
    47   1      3.5700000000000003      46.410000000000004      37.484999999999999
    48   1      1.7850000000000037                  44.625                  41.055
    49   1      1.7850000000000037      46.410000000000004      42.840000000000003
    50   1      3.5700000000000003                  44.625      42.840000000000003
    51   1      3.5700000000000003      46.410000000000004                  41.055
    52   1      1.7850000000000037                  44.625                  44.625
    53   1      1.7850000000000037      46.410000000000004      46.410000000000004
    54   1      3.5700000000000003                  44.625      46.410000000000004
    55   1      3.5700000000000003      46.410000000000004                  44.625
    56   1      1.7850000000000037                  44.625      48.195000000000007
    57   1      1.7850000000000037      46.410000000000004      49.979999999999997
    58   1      3.5700000000000003                  44.625      49.979999999999997
    59   1      3.5700000000000003      46.410000000000004      48.195000000000007
    60   1      1.7850000000000037                  44.625      51.765000000000001
    61   1      3.5700000000000003                  44.625      53.550000000000004
    62   1      3.5700000000000003      46.410000000000004      51.765000000000001
    63   1      3.5700000000000003      46.410000000000004      55.335000000000008
    64   1      3.5700000000000003      48.195000000000007      35.700000000000003
    65   1      3.5700000000000003      48.195000000000007      39.270000000000003
    66   1      3.5700000000000003      49.979999999999997      37.484999999999999
    67   1      1.7850000000000037      48.195000000000007                  41.055
    68   1      1.7850000000000037      49.979999999999997      42.840000000000003
    69   1      3.5700000000000003      48.195000000000007      42.840000000000003
    70   1      3.5700000000000003      49.979999999999997                  41.055
    71   1      1.7850000000000037      48.195000000000007                  44.625
    72   1      1.7850000000000037      49.979999999999997      46.410000000000004
    73   1      3.5700000000000003      48.195000000000007      46.410000000000004
    74   1      3.5700000000000003      49.979999999999997                  44.625
    75   1      1.7850000000000037      48.195000000000007      48.195000000000007
    76   1      3.5700000000000003      48.195000000000007      49.979999999999997
    77   1      3.5700000000000003      49.979999999999997      48.195000000000007
    78   1      3.5700000000000003      48.195000000000007      53.550000000000004
    79   1      3.5700000000000003      49.979999999999997      51.765000000000001
    80   1      3.5700000000000003      51.765000000000001      39.270000000000003
    81   1      3.5700000000000003      51.765000000000001      42.840000000000003
    82   1      3.5700000000000003      53.550000000000004                  41.055
    83   1      1.7850000000000037      51.765000000000001                  44.625
    84   1      3.5700000000000003      51.765000000000001      46.410000000000004
    85   1      3.5700000000000003      53.550000000000004                  44.625
    86   1      3.5700000000000003      51.765000000000001      49.979999999999997
    87   1      3.5700000000000003      53.550000000000004      48.195000000000007
    88   1      3.5700000000000003      55.335000000000008      42.840000000000003
    89   1      3.5700000000000003      55.335000000000008      46.410000000000004
    90   1      7.1400000000000006      24.990000000000002                  44.625
    91   1      7.1400000000000006      26.775000000000006      39.270000000000003
    92   1      7.1400000000000006      28.560000000000002      37.484999999999999
    93   1      7.1400000000000006      26.775000000000006      42.840000000000003
    94   1      7.1400000000000006      28.560000000000002                  41.055
    95   1      7.1400000000000006      26.775000000000006      46.410000000000004
    96   1      7.1400000000000006      28.560000000000002                  44.625
    97   1      7.1400000000000006      26.775000000000006      49.979999999999997
    98   1      7.1400000000000006      28.560000000000002      48.195000000000007
    99   1      7.1400000000000006      28.560000000000002      51.765000000000001
   100   1      7.1400000000000006      30.345000000000002      32.129999999999995
   101   1      7.1400000000000006      32.129999999999995      30.345000000000002
   102   1      7.1400000000000006      30.345000000000002      35.700000000000003
   103   1      7.1400000000000006      32.129999999999995      33.914999999999999
   104   1      5.3550000000000049      32.129999999999995      39.270000000000003
   105   1      7.1400000000000006      30.345000000000002      39.270000000000003
   106   1      7.1400000000000006      32.129999999999995      37.484999999999999
   107   1      5.3550000000000049      30.345000000000002                  41.055
   108   1      5.3550000000000049      32.129999999999995      42.840000000000003
   109   1      7.1400000000000006      30.345000000000002      42.840000000000003
   110   1      7.1400000000000006      32.129999999999995                  41.055
   111   1      5.3550000000000049      30.345000000000002                  44.625
   112   1      5.3550000000000049      32.129999999999995      46.410000000000004
   113   1      7.1400000000000006      30.345000000000002      46.410000000000004
   114   1      7.1400000000000006      32.129999999999995                  44.625
   115   1      5.3550000000000049      30.345000000000002      48.195000000000007
   116   1      5.3550000000000049      32.129999999999995      49.979999999999997
   117   1      7.1400000000000006      30.345000000000002      49.979999999999997
   118   1      7.1400000000000006      32.129999999999995      48.195000000000007
   119   1      7.1400000000000006      30.345000000000002      53.550000000000004
   120   1      7.1400000000000006      32.129999999999995      51.765000000000001
   121   1      7.1400000000000006      30.345000000000002      57.119999999999997
   122   1      7.1400000000000006      32.129999999999995      55.335000000000008
   123   1      7.1400000000000006      32.129999999999995      58.905000000000008
   124   1      7.1400000000000006      33.914999999999999      32.129999999999995
   125   1      7.1400000000000006      35.700000000000003      30.345000000000002
   126   1      5.3550000000000049      33.914999999999999      33.914999999999999
   127   1      5.3550000000000049      35.700000000000003      35.700000000000003
   128   1      7.1400000000000006      33.914999999999999      35.700000000000003
   129   1      7.1400000000000006      35.700000000000003      33.914999999999999
   130   1      5.3550000000000049      33.914999999999999      37.484999999999999
   131   1      5.3550000000000049      35.700000000000003      39.270000000000003
   132   1      7.1400000000000006      33.914999999999999      39.270000000000003
   133   1      7.1400000000000006      35.700000000000003      37.484999999999999
   134   1      5.3550000000000049      33.914999999999999                  41.055
   135   1      5.3550000000000049      35.700000000000003      42.840000000000003
   136   1      7.1400000000000006      33.914999999999999      42.840000000000003
   137   1      7.1400000000000006      35.700000000000003                  41.055
   138   1      5.3550000000000049      33.914999999999999                  44.625
   139   1      5.3550000000000049      35.700000000000003      46.410000000000004
   140   1      7.1400000000000006      33.914999999999999      46.410000000000004
   141   1      7.1400000000000006      35.700000000000003                  44.625
   142   1      5.3550000000000049      33.914999999999999      48.195000000000007
   143   1      5.3550000000000049      35.700000000000003      49.979999999999997
   144   1      7.1400000000000006      33.914999999999999      49.979999999999997
   145   1      7.1400000000000006      35.700000000000003      48.195000000000007
   146   1      5.3550000000000049      33.914999999999999      51.765000000000001
   147   1      5.3550000000000049      35.700000000000003      53.550000000000004
   148   1      7.1400000000000006      33.914999999999999      53.550000000000004
   149   1      7.1400000000000006      35.700000000000003      51.765000000000001
   150   1      5.3550000000000049      33.914999999999999      55.335000000000008
   151   1      7.1400000000000006      33.914999999999999      57.119999999999997
   152   1      7.1400000000000006      35.700000000000003      55.335000000000008
   153   1      7.1400000000000006      35.700000000000003      58.905000000000008
   154   1      7.1400000000000006      37.484999999999999      28.560000000000002
   155   1      7.1400000000000006      39.270000000000003      26.775000000000006
   156   1      5.3550000000000049      39.270000000000003      32.129999999999995
   157   1      7.1400000000000006      37.484999999999999      32.129999999999995
   158   1      7.1400000000000006      39.270000000000003      30.345000000000002
   159   1      5.3550000000000049      37.484999999999999      33.914999999999999
   160   1      5.3550000000000049      39.270000000000003      35.700000000000003
   161   1      7.1400000000000006      37.484999999999999      35.700000000000003
   162   1      7.1400000000000006      39.270000000000003      33.914999999999999
   163   1      5.3550000000000049      37.484999999999999      37.484999999999999
   164   1      5.3550000000000049      39.270000000000003      39.270000000000003
   165   1      7.1400000000000006      37.484999999999999      39.270000000000003
   166   1      7.1400000000000006      39.270000000000003      37.484999999999999
   167   1      5.3550000000000049      37.484999999999999                  41.055
   168   1      5.3550000000000049      39.270000000000003      42.840000000000003
   169   1      7.1400000000000006      37.484999999999999      42.840000000000003
   170   1      7.1400000000000006      39.270000000000003                  41.055
   171   1      5.3550000000000049      37.484999999999999                  44.625
   172   1      5.3550000000000049      39.270000000000003      46.410000000000004
   173   1      7.1400000000000006      37.484999999999999      46.410000000000004
   174   1      7.1400000000000006      39.270000000000003                  44.625
   175   1      5.3550000000000049      37.484999999999999      48.195000000000007
   176   1      5.3550000000000049      39.270000000000003      49.979999999999997
   177   1      7.1400000000000006      37.484999999999999      49.979999999999997
   178   1      7.1400000000000006      39.270000000000003      48.195000000000007
   179   1      5.3550000000000049      37.484999999999999      51.765000000000001
   180   1      5.3550000000000049      39.270000000000003      53.550000000000004
   181   1      7.1400000000000006      37.484999999999999      53.550000000000004
   182   1      7.1400000000000006      39.270000000000003      51.765000000000001
   183   1      5.3550000000000049      37.484999999999999      55.335000000000008
   184   1      5.3550000000000049      39.270000000000003      57.119999999999997
   185   1      7.1400000000000006      37.484999999999999      57.119999999999997
   186   1      7.1400000000000006      39.270000000000003      55.335000000000008
   187   1      7.1400000000000006      37.484999999999999      60.690000000000005
   188   1      7.1400000000000006      39.270000000000003      58.905000000000008
   189   1      7.1400000000000006      39.270000000000003      62.475000000000001
   190   1      7.1400000000000006                  41.055      28.560000000000002
   191   1      7.1400000000000006      42.840000000000003      26.775000000000006
   192   1      5.3550000000000049                  41.055      30.345000000000002
   193   1      5.3550000000000049      42.840000000000003      32.129999999999995
   194   1      7.1400000000000006                  41.055      32.129999999999995
   195   1      7.1400000000000006      42.840000000000003      30.345000000000002
   196   1      5.3550000000000049                  41.055      33.914999999999999
   197   1      5.3550000000000049      42.840000000000003      35.700000000000003
   198   1      7.1400000000000006                  41.055      35.700000000000003
   199   1      7.1400000000000006      42.840000000000003      33.914999999999999
   200   1      5.3550000000000049                  41.055      37.484999999999999
   201   1      5.3550000000000049      42.840000000000003      39.270000000000003
   202   1      7.1400000000000006                  41.055      39.270000000000003
   203   1      7.1400000000000006      42.840000000000003      37.484999999999999
   204   1      5.3550000000000049                  41.055                  41.055
   205   1      5.3550000000000049      42.840000000000003      42.840000000000003
   206   1      7.1400000000000006                  41.055      42.840000000000003
   207   1      7.1400000000000006      42.840000000000003                  41.055
   208   1      5.3550000000000049                  41.055                  44.625
   209   1      5.3550000000000049      42.840000000000003      46.410000000000004
   210   1      7.1400000000000006                  41.055      46.410000000000004
   211   1      7.1400000000000006      42.840000000000003                  44.625
   212   1      5.3550000000000049                  41.055      48.195000000000007
   213   1      5.3550000000000049      42.840000000000003      49.979999999999997
   214   1      7.1400000000000006                  41.055      49.979999999999997
   215   1      7.1400000000000006      42.840000000000003      48.195000000000007
   216   1      5.3550000000000049                  41.055      51.765000000000001
   217   1      5.3550000000000049      42.840000000000003      53.550000000000004
   218   1      7.1400000000000006                  41.055      53.550000000000004
   219   1      7.1400000000000006      42.840000000000003      51.765000000000001
   220   1      5.3550000000000049                  41.055      55.335000000000008
   221   1      5.3550000000000049      42.840000000000003      57.119999999999997
   222   1      7.1400000000000006                  41.055      57.119999999999997
   223   1      7.1400000000000006      42.840000000000003      55.335000000000008
   224   1      5.3550000000000049                  41.055      58.905000000000008
   225   1      7.1400000000000006                  41.055      60.690000000000005
   226   1      7.1400000000000006      42.840000000000003      58.905000000000008
   227   1      7.1400000000000006      42.840000000000003      62.475000000000001
   228   1      7.1400000000000006                  44.625      24.990000000000002
   229   1      7.1400000000000006                  44.625      28.560000000000002
   230   1      7.1400000000000006      46.410000000000004      26.775000000000006
   231   1      5.3550000000000049                  44.625      30.345000000000002
   232   1      5.3550000000000049      46.410000000000004      32.129999999999995
   233   1      7.1400000000000006                  44.625      32.129999999999995
   234   1      7.1400000000000006      46.410000000000004      30.345000000000002
   235   1      5.3550000000000049                  44.625      33.914999999999999
   236   1      5.3550000000000049      46.410000000000004      35.700000000000003
   237   1      7.1400000000000006                  44.625      35.700000000000003
   238   1      7.1400000000000006      46.410000000000004      33.914999999999999
   239   1      5.3550000000000049                  44.625      37.484999999999999
   240   1      5.3550000000000049      46.410000000000004      39.270000000000003
   241   1      7.1400000000000006                  44.625      39.270000000000003
   242   1      7.1400000000000006      46.410000000000004      37.484999999999999
   243   1      5.3550000000000049                  44.625                  41.055
   244   1      5.3550000000000049      46.410000000000004      42.840000000000003
   245   1      7.1400000000000006                  44.625      42.840000000000003
   246   1      7.1400000000000006      46.410000000000004                  41.055
   247   1      5.3550000000000049                  44.625                  44.625
   248   1      5.3550000000000049      46.410000000000004      46.410000000000004
   249   1      7.1400000000000006                  44.625      46.410000000000004
   250   1      7.1400000000000006      46.410000000000004                  44.625
   251   1      5.3550000000000049                  44.625      48.195000000000007
   252   1      5.3550000000000049      46.410000000000004      49.979999999999997
   253   1      7.1400000000000006                  44.625      49.979999999999997
   254   1      7.1400000000000006      46.410000000000004      48.195000000000007
   255   1      5.3550000000000049                  44.625      51.765000000000001
   256   1      5.3550000000000049      46.410000000000004      53.550000000000004
   257   1      7.1400000000000006                  44.625      53.550000000000004
   258   1      7.1400000000000006      46.410000000000004      51.765000000000001
   259   1      5.3550000000000049                  44.625      55.335000000000008
   260   1      5.3550000000000049      46.410000000000004      57.119999999999997
   261   1      7.1400000000000006                  44.625      57.119999999999997
   262   1      7.1400000000000006      46.410000000000004      55.335000000000008
   263   1      5.3550000000000049                  44.625      58.905000000000008
   264   1      7.1400000000000006                  44.625      60.690000000000005
   265   1      7.1400000000000006      46.410000000000004      58.905000000000008
   266   1      7.1400000000000006                  44.625      64.259999999999991
   267   1      7.1400000000000006      46.410000000000004      62.475000000000001
   268   1      7.1400000000000006      48.195000000000007      28.560000000000002
   269   1      7.1400000000000006      49.979999999999997      26.775000000000006
   270   1      5.3550000000000049      48.195000000000007      30.345000000000002
   271   1      5.3550000000000049      49.979999999999997      32.129999999999995
   272   1      7.1400000000000006      48.195000000000007      32.129999999999995
   273   1      7.1400000000000006      49.979999999999997      30.345000000000002
   274   1      5.3550000000000049      48.195000000000007      33.914999999999999
   275   1      5.3550000000000049      49.979999999999997      35.700000000000003
   276   1      7.1400000000000006      48.195000000000007      35.700000000000003
   277   1      7.1400000000000006      49.979999999999997      33.914999999999999
   278   1      5.3550000000000049      48.195000000000007      37.484999999999999
   279   1      5.3550000000000049      49.979999999999997      39.270000000000003
   280   1      7.1400000000000006      48.195000000000007      39.270000000000003
   281   1      7.1400000000000006      49.979999999999997      37.484999999999999
   282   1      5.3550000000000049      48.195000000000007                  41.055
   283   1      5.3550000000000049      49.979999999999997      42.840000000000003
   284   1      7.1400000000000006      48.195000000000007      42.840000000000003
   285   1      7.1400000000000006      49.979999999999997                  41.055
   286   1      5.3550000000000049      48.195000000000007                  44.625
   287   1      5.3550000000000049      49.979999999999997      46.410000000000004
   288   1      7.1400000000000006      48.195000000000007      46.410000000000004
   289   1      7.1400000000000006      49.979999999999997                  44.625
   290   1      5.3550000000000049      48.195000000000007      48.195000000000007
   291   1      5.3550000000000049      49.979999999999997      49.979999999999997
   292   1      7.1400000000000006      48.195000000000007      49.979999999999997
   293   1      7.1400000000000006      49.979999999999997      48.195000000000007
   294   1      5.3550000000000049      48.195000000000007      51.765000000000001
   295   1      5.3550000000000049      49.979999999999997      53.550000000000004
   296   1      7.1400000000000006      48.195000000000007      53.550000000000004
   297   1      7.1400000000000006      49.979999999999997      51.765000000000001
   298   1      5.3550000000000049      48.195000000000007      55.335000000000008
   299   1      5.3550000000000049      49.979999999999997      57.119999999999997
   300   1      7.1400000000000006      48.195000000000007      57.119999999999997
   301   1      7.1400000000000006      49.979999999999997      55.335000000000008
   302   1      5.3550000000000049      48.195000000000007      58.905000000000008
   303   1      7.1400000000000006      48.195000000000007      60.690000000000005
   304   1      7.1400000000000006      49.979999999999997      58.905000000000008
   305   1      7.1400000000000006      49.979999999999997      62.475000000000001
   306   1      7.1400000000000006      51.765000000000001      28.560000000000002
   307   1      7.1400000000000006      51.765000000000001      32.129999999999995
   308   1      7.1400000000000006      53.550000000000004      30.345000000000002
   309   1      5.3550000000000049      51.765000000000001      33.914999999999999
   310   1      5.3550000000000049      53.550000000000004      35.700000000000003
   311   1      7.1400000000000006      51.765000000000001      35.700000000000003
   312   1      7.1400000000000006      53.550000000000004      33.914999999999999
   313   1      5.3550000000000049      51.765000000000001      37.484999999999999
   314   1      5.3550000000000049      53.550000000000004      39.270000000000003
   315   1      7.1400000000000006      51.765000000000001      39.270000000000003
   316   1      7.1400000000000006      53.550000000000004      37.484999999999999
   317   1      5.3550000000000049      51.765000000000001                  41.055
   318   1      5.3550000000000049      53.550000000000004      42.840000000000003
   319   1      7.1400000000000006      51.765000000000001      42.840000000000003
   320   1      7.1400000000000006      53.550000000000004                  41.055
   321   1      5.3550000000000049      51.765000000000001                  44.625
   322   1      5.3550000000000049      53.550000000000004      46.410000000000004
   323   1      7.1400000000000006      51.765000000000001      46.410000000000004
   324   1      7.1400000000000006      53.550000000000004                  44.625
   325   1      5.3550000000000049      51.765000000000001      48.195000000000007
   326   1      5.3550000000000049      53.550000000000004      49.979999999999997
   327   1      7.1400000000000006      51.765000000000001      49.979999999999997
   328   1      7.1400000000000006      53.550000000000004      48.195000000000007
   329   1      5.3550000000000049      51.765000000000001      51.765000000000001
   330   1      5.3550000000000049      53.550000000000004      53.550000000000004
   331   1      7.1400000000000006      51.765000000000001      53.550000000000004
   332   1      7.1400000000000006      53.550000000000004      51.765000000000001
   333   1      5.3550000000000049      51.765000000000001      55.335000000000008
   334   1      7.1400000000000006      51.765000000000001      57.119999999999997
   335   1      7.1400000000000006      53.550000000000004      55.335000000000008
   336   1      7.1400000000000006      51.765000000000001      60.690000000000005
   337   1      7.1400000000000006      53.550000000000004      58.905000000000008
   338   1      7.1400000000000006      55.335000000000008      32.129999999999995
   339   1      7.1400000000000006      57.119999999999997      30.345000000000002
   340   1      5.3550000000000049      55.335000000000008      33.914999999999999
   341   1      7.1400000000000006      55.335000000000008      35.700000000000003
   342   1      7.1400000000000006      57.119999999999997      33.914999999999999
   343   1      5.3550000000000049      55.335000000000008      37.484999999999999
   344   1      5.3550000000000049      57.119999999999997      39.270000000000003
   345   1      7.1400000000000006      55.335000000000008      39.270000000000003
   346   1      7.1400000000000006      57.119999999999997      37.484999999999999
   347   1      5.3550000000000049      55.335000000000008                  41.055
   348   1      5.3550000000000049      57.119999999999997      42.840000000000003
   349   1      7.1400000000000006      55.335000000000008      42.840000000000003
   350   1      7.1400000000000006      57.119999999999997                  41.055
   351   1      5.3550000000000049      55.335000000000008                  44.625
   352   1      5.3550000000000049      57.119999999999997      46.410000000000004
   353   1      7.1400000000000006      55.335000000000008      46.410000000000004
   354   1      7.1400000000000006      57.119999999999997                  44.625
   355   1      5.3550000000000049      55.335000000000008      48.195000000000007
   356   1      5.3550000000000049      57.119999999999997      49.979999999999997
   357   1      7.1400000000000006      55.335000000000008      49.979999999999997
   358   1      7.1400000000000006      57.119999999999997      48.195000000000007