model_files/CuFeNi/CuFeNi_30000/CuFeNi_544/CuFeNi_544_fcc_30001_temp.data (written by ASE) 

30001 	 atoms 
3  atom types
0.0                     114  xlo xhi
0.0                     114  ylo yhi
0.0                     114  zlo zhi


Atoms 

     1   1      1.7899999999999991      55.490000000000002      57.279999999999994
     2   1      1.7899999999999991      57.279999999999994      55.490000000000002
     3   1                       0      57.279999999999994      57.279999999999994
     4   1      1.7899999999999991      57.279999999999994      59.069999999999993
     5   1      1.7899999999999991      59.069999999999993      57.279999999999994
     6   1      5.3700000000000045      51.909999999999997      57.279999999999994
     7   1      3.5799999999999983      55.490000000000002      55.490000000000002
     8   1      5.3700000000000045      53.700000000000003      55.490000000000002
     9   1      5.3700000000000045      55.490000000000002      53.700000000000003
    10   1      3.5799999999999983      53.700000000000003      57.279999999999994
    11   1      3.5799999999999983      55.490000000000002      59.069999999999993
    12   1      5.3700000000000045      53.700000000000003      59.069999999999993
    13   1      5.3700000000000045      55.490000000000002      57.279999999999994
    14   1      5.3700000000000045      55.490000000000002      60.859999999999999
    15   1      5.3700000000000045      57.279999999999994      51.909999999999997
    16   1      3.5799999999999983      57.279999999999994      53.700000000000003
    17   1      3.5799999999999983      59.069999999999993      55.490000000000002
    18   1      5.3700000000000045      57.279999999999994      55.490000000000002
    19   1      5.3700000000000045      59.069999999999993      53.700000000000003
    20   1      3.5799999999999983      57.279999999999994      57.279999999999994
    21   1      3.5799999999999983      59.069999999999993      59.069999999999993
    22   1      5.3700000000000045      57.279999999999994      59.069999999999993
    23   1      5.3700000000000045      59.069999999999993      57.279999999999994
    24   1      3.5799999999999983      57.279999999999994      60.859999999999999
    25   1      5.3700000000000045      57.279999999999994      62.649999999999999
    26   1      5.3700000000000045      59.069999999999993      60.859999999999999
    27   1      5.3700000000000045      60.859999999999999      55.490000000000002
    28   1      3.5799999999999983      60.859999999999999      57.279999999999994
    29   1      5.3700000000000045      60.859999999999999      59.069999999999993
    30   1      5.3700000000000045      62.649999999999999      57.279999999999994
    31   1      8.9500000000000028                   44.75      57.279999999999994
    32   1      8.9500000000000028      46.540000000000006      55.490000000000002
    33   1      8.9500000000000028      48.329999999999998      53.700000000000003
    34   1      8.9500000000000028      46.540000000000006      59.069999999999993
    35   1      8.9500000000000028      48.329999999999998      57.279999999999994
    36   1      8.9500000000000028      48.329999999999998      60.859999999999999
    37   1      8.9500000000000028      50.120000000000005      51.909999999999997
    38   1      8.9500000000000028      51.909999999999997      50.120000000000005
    39   1      7.1600000000000028      51.909999999999997      55.490000000000002
    40   1      8.9500000000000028      50.120000000000005      55.490000000000002
    41   1      8.9500000000000028      51.909999999999997      53.700000000000003
    42   1      7.1600000000000028      50.120000000000005      57.279999999999994
    43   1      7.1600000000000028      51.909999999999997      59.069999999999993
    44   1      8.9500000000000028      50.120000000000005      59.069999999999993
    45   1      8.9500000000000028      51.909999999999997      57.279999999999994
    46   1      8.9500000000000028      50.120000000000005      62.649999999999999
    47   1      8.9500000000000028      51.909999999999997      60.859999999999999
    48   1      8.9500000000000028      51.909999999999997      64.439999999999998
    49   1      8.9500000000000028      53.700000000000003      48.329999999999998
    50   1      8.9500000000000028      55.490000000000002      46.540000000000006
    51   1      7.1600000000000028      55.490000000000002      51.909999999999997
    52   1      8.9500000000000028      53.700000000000003      51.909999999999997
    53   1      8.9500000000000028      55.490000000000002      50.120000000000005
    54   1      7.1600000000000028      53.700000000000003      53.700000000000003
    55   1      7.1600000000000028      55.490000000000002      55.490000000000002
    56   1      8.9500000000000028      53.700000000000003      55.490000000000002
    57   1      8.9500000000000028      55.490000000000002      53.700000000000003
    58   1      7.1600000000000028      53.700000000000003      57.279999999999994
    59   1      7.1600000000000028      55.490000000000002      59.069999999999993
    60   1      8.9500000000000028      53.700000000000003      59.069999999999993
    61   1      8.9500000000000028      55.490000000000002      57.279999999999994
    62   1      7.1600000000000028      53.700000000000003      60.859999999999999
    63   1      7.1600000000000028      55.490000000000002      62.649999999999999
    64   1      8.9500000000000028      53.700000000000003      62.649999999999999
    65   1      8.9500000000000028      55.490000000000002      60.859999999999999
    66   1      8.9500000000000028      53.700000000000003      66.230000000000004
    67   1      8.9500000000000028      55.490000000000002      64.439999999999998
    68   1      8.9500000000000028      55.490000000000002      68.019999999999982
    69   1      8.9500000000000028      57.279999999999994                   44.75
    70   1      8.9500000000000028      57.279999999999994      48.329999999999998
    71   1      8.9500000000000028      59.069999999999993      46.540000000000006
    72   1      7.1600000000000028      57.279999999999994      50.120000000000005
    73   1      7.1600000000000028      59.069999999999993      51.909999999999997
    74   1      8.9500000000000028      57.279999999999994      51.909999999999997
    75   1      8.9500000000000028      59.069999999999993      50.120000000000005
    76   1      7.1600000000000028      57.279999999999994      53.700000000000003
    77   1      7.1600000000000028      59.069999999999993      55.490000000000002
    78   1      8.9500000000000028      57.279999999999994      55.490000000000002
    79   1      8.9500000000000028      59.069999999999993      53.700000000000003
    80   1      7.1600000000000028      57.279999999999994      57.279999999999994
    81   1      7.1600000000000028      59.069999999999993      59.069999999999993
    82   1      8.9500000000000028      57.279999999999994      59.069999999999993
    83   1      8.9500000000000028      59.069999999999993      57.279999999999994
    84   1      7.1600000000000028      57.279999999999994      60.859999999999999
    85   1      7.1600000000000028      59.069999999999993      62.649999999999999
    86   1      8.9500000000000028      57.279999999999994      62.649999999999999
    87   1      8.9500000000000028      59.069999999999993      60.859999999999999
    88   1      7.1600000000000028      57.279999999999994      64.439999999999998
    89   1      8.9500000000000028      57.279999999999994      66.230000000000004
    90   1      8.9500000000000028      59.069999999999993      64.439999999999998
    91   1      8.9500000000000028      57.279999999999994      69.810000000000002
    92   1      8.9500000000000028      59.069999999999993      68.019999999999982
    93   1      8.9500000000000028      60.859999999999999      48.329999999999998
    94   1      8.9500000000000028      60.859999999999999      51.909999999999997
    95   1      8.9500000000000028      62.649999999999999      50.120000000000005
    96   1      7.1600000000000028      60.859999999999999      53.700000000000003
    97   1      7.1600000000000028      62.649999999999999      55.490000000000002
    98   1      8.9500000000000028      60.859999999999999      55.490000000000002
    99   1      8.9500000000000028      62.649999999999999      53.700000000000003
   100   1      7.1600000000000028      60.859999999999999      57.279999999999994
   101   1      7.1600000000000028      62.649999999999999      59.069999999999993
   102   1      8.9500000000000028      60.859999999999999      59.069999999999993
   103   1      8.9500000000000028      62.649999999999999      57.279999999999994
   104   1      7.1600000000000028      60.859999999999999      60.859999999999999
   105   1      8.9500000000000028      60.859999999999999      62.649999999999999
   106   1      8.9500000000000028      62.649999999999999      60.859999999999999
   107   1      8.9500000000000028      60.859999999999999      66.230000000000004
   108   1      8.9500000000000028      62.649999999999999      64.439999999999998
   109   1      8.9500000000000028      64.439999999999998      51.909999999999997
   110   1      8.9500000000000028      64.439999999999998      55.490000000000002
   111   1      8.9500000000000028      66.230000000000004      53.700000000000003
   112   1      7.1600000000000028      64.439999999999998      57.279999999999994
   113   1      8.9500000000000028      64.439999999999998      59.069999999999993
   114   1      8.9500000000000028      66.230000000000004      57.279999999999994
   115   1      8.9500000000000028      64.439999999999998      62.649999999999999
   116   1      8.9500000000000028      66.230000000000004      60.859999999999999
   117   1      8.9500000000000028      68.019999999999982      55.490000000000002
   118   1      8.9500000000000028      68.019999999999982      59.069999999999993
   119   1      8.9500000000000028      69.810000000000002      57.279999999999994
   120   1      12.530000000000001      41.170000000000002      57.279999999999994
   121   1                   10.74                   44.75      55.490000000000002
   122   1      12.530000000000001      42.959999999999994      55.490000000000002
   123   1      12.530000000000001                   44.75      53.700000000000003
   124   1                   10.74      42.959999999999994      57.279999999999994
   125   1                   10.74                   44.75      59.069999999999993
   126   1      12.530000000000001      42.959999999999994      59.069999999999993
   127   1      12.530000000000001                   44.75      57.279999999999994
   128   1      12.530000000000001                   44.75      60.859999999999999
   129   1                   10.74      48.329999999999998      51.909999999999997
   130   1      12.530000000000001      46.540000000000006      51.909999999999997
   131   1      12.530000000000001      48.329999999999998      50.120000000000005
   132   1                   10.74      46.540000000000006      53.700000000000003
   133   1                   10.74      48.329999999999998      55.490000000000002
   134   1      12.530000000000001      46.540000000000006      55.490000000000002
   135   1      12.530000000000001      48.329999999999998      53.700000000000003
   136   1                   10.74      46.540000000000006      57.279999999999994
   137   1                   10.74      48.329999999999998      59.069999999999993
   138   1      12.530000000000001      46.540000000000006      59.069999999999993
   139   1      12.530000000000001      48.329999999999998      57.279999999999994
   140   1                   10.74      46.540000000000006      60.859999999999999
   141   1                   10.74      48.329999999999998      62.649999999999999
   142   1      12.530000000000001      46.540000000000006      62.649999999999999
   143   1      12.530000000000001      48.329999999999998      60.859999999999999
   144   1      12.530000000000001      48.329999999999998      64.439999999999998
   145   1                   10.74      51.909999999999997      48.329999999999998
   146   1      12.530000000000001      50.120000000000005      48.329999999999998
   147   1      12.530000000000001      51.909999999999997      46.540000000000006
   148   1                   10.74      50.120000000000005      50.120000000000005
   149   1                   10.74      51.909999999999997      51.909999999999997
   150   1      12.530000000000001      50.120000000000005      51.909999999999997
   151   1      12.530000000000001      51.909999999999997      50.120000000000005
   152   1                   10.74      50.120000000000005      53.700000000000003
   153   1                   10.74      51.909999999999997      55.490000000000002
   154   1      12.530000000000001      50.120000000000005      55.490000000000002
   155   1      12.530000000000001      51.909999999999997      53.700000000000003
   156   1                   10.74      50.120000000000005      57.279999999999994
   157   1                   10.74      51.909999999999997      59.069999999999993
   158   1      12.530000000000001      50.120000000000005      59.069999999999993
   159   1      12.530000000000001      51.909999999999997      57.279999999999994
   160   1                   10.74      50.120000000000005      60.859999999999999
   161   1                   10.74      51.909999999999997      62.649999999999999
   162   1      12.530000000000001      50.120000000000005      62.649999999999999
   163   1      12.530000000000001      51.909999999999997      60.859999999999999
   164   1                   10.74      50.120000000000005      64.439999999999998
   165   1                   10.74      51.909999999999997      66.230000000000004
   166   1      12.530000000000001      50.120000000000005      66.230000000000004
   167   1      12.530000000000001      51.909999999999997      64.439999999999998
   168   1      12.530000000000001      51.909999999999997      68.019999999999982
   169   1                   10.74      55.490000000000002                   44.75
   170   1      12.530000000000001      53.700000000000003                   44.75
   171   1      12.530000000000001      55.490000000000002      42.959999999999994
   172   1                   10.74      53.700000000000003      46.540000000000006
   173   1                   10.74      55.490000000000002      48.329999999999998
   174   1      12.530000000000001      53.700000000000003      48.329999999999998
   175   1      12.530000000000001      55.490000000000002      46.540000000000006
   176   1                   10.74      53.700000000000003      50.120000000000005
   177   1                   10.74      55.490000000000002      51.909999999999997
   178   1      12.530000000000001      53.700000000000003      51.909999999999997
   179   1      12.530000000000001      55.490000000000002      50.120000000000005
   180   1                   10.74      53.700000000000003      53.700000000000003
   181   1                   10.74      55.490000000000002      55.490000000000002
   182   1      12.530000000000001      53.700000000000003      55.490000000000002
   183   1      12.530000000000001      55.490000000000002      53.700000000000003
   184   1                   10.74      53.700000000000003      57.279999999999994
   185   1                   10.74      55.490000000000002      59.069999999999993
   186   1      12.530000000000001      53.700000000000003      59.069999999999993
   187   1      12.530000000000001      55.490000000000002      57.279999999999994
   188   1                   10.74      53.700000000000003      60.859999999999999
   189   1                   10.74      55.490000000000002      62.649999999999999
   190   1      12.530000000000001      53.700000000000003      62.649999999999999
   191   1      12.530000000000001      55.490000000000002      60.859999999999999
   192   1                   10.74      53.700000000000003      64.439999999999998
   193   1                   10.74      55.490000000000002      66.230000000000004
   194   1      12.530000000000001      53.700000000000003      66.230000000000004
   195   1      12.530000000000001      55.490000000000002      64.439999999999998
   196   1                   10.74      53.700000000000003      68.019999999999982
   197   1                   10.74      55.490000000000002      69.810000000000002
   198   1      12.530000000000001      53.700000000000003      69.810000000000002
   199   1      12.530000000000001      55.490000000000002      68.019999999999982
   200   1      12.530000000000001      55.490000000000002      71.600000000000009
   201   1      12.530000000000001      57.279999999999994      41.170000000000002
   202   1                   10.74      57.279999999999994      42.959999999999994
   203   1                   10.74      59.069999999999993                   44.75
   204   1      12.530000000000001      57.279999999999994                   44.75
   205   1      12.530000000000001      59.069999999999993      42.959999999999994
   206   1                   10.74      57.279999999999994      46.540000000000006
   207   1                   10.74      59.069999999999993      48.329999999999998
   208   1      12.530000000000001      57.279999999999994      48.329999999999998
   209   1      12.530000000000001      59.069999999999993      46.540000000000006
   210   1                   10.74      57.279999999999994      50.120000000000005
   211   1                   10.74      59.069999999999993      51.909999999999997
   212   1      12.530000000000001      57.279999999999994      51.909999999999997
   213   1      12.530000000000001      59.069999999999993      50.120000000000005
   214   1                   10.74      57.279999999999994      53.700000000000003
   215   1                   10.74      59.069999999999993      55.490000000000002
   216   1      12.530000000000001      57.279999999999994      55.490000000000002
   217   1      12.530000000000001      59.069999999999993      53.700000000000003
   218   1                   10.74      57.279999999999994      57.279999999999994
   219   1                   10.74      59.069999999999993      59.069999999999993
   220   1      12.530000000000001      57.279999999999994      59.069999999999993
   221   1      12.530000000000001      59.069999999999993      57.279999999999994
   222   1                   10.74      57.279999999999994      60.859999999999999
   223   1                   10.74      59.069999999999993      62.649999999999999
   224   1      12.530000000000001      57.279999999999994      62.649999999999999
   225   1      12.530000000000001      59.069999999999993      60.859999999999999
   226   1                   10.74      57.279999999999994      64.439999999999998
   227   1                   10.74      59.069999999999993      66.230000000000004
   228   1      12.530000000000001      57.279999999999994      66.230000000000004
   229   1      12.530000000000001      59.069999999999993      64.439999999999998
   230   1                   10.74      57.279999999999994      68.019999999999982
   231   1                   10.74      59.069999999999993      69.810000000000002
   232   1      12.530000000000001      57.279999999999994      69.810000000000002
   233   1      12.530000000000001      59.069999999999993      68.019999999999982
   234   1                   10.74      57.279999999999994      71.600000000000009
   235   1      12.530000000000001      57.279999999999994      73.390000000000015
   236   1      12.530000000000001      59.069999999999993      71.600000000000009
   237   1      12.530000000000001      60.859999999999999                   44.75
   238   1                   10.74      60.859999999999999      46.540000000000006
   239   1                   10.74      62.649999999999999      48.329999999999998
   240   1      12.530000000000001      60.859999999999999      48.329999999999998
   241   1      12.530000000000001      62.649999999999999      46.540000000000006
   242   1                   10.74      60.859999999999999      50.120000000000005
   243   1                   10.74      62.649999999999999      51.909999999999997
   244   1      12.530000000000001      60.859999999999999      51.909999999999997
   245   1      12.530000000000001      62.649999999999999      50.120000000000005
   246   1                   10.74      60.859999999999999      53.700000000000003
   247   1                   10.74      62.649999999999999      55.490000000000002
   248   1      12.530000000000001      60.859999999999999      55.490000000000002
   249   1      12.530000000000001      62.649999999999999      53.700000000000003
   250   1                   10.74      60.859999999999999      57.279999999999994
   251   1                   10.74      62.649999999999999      59.069999999999993
   252   1      12.530000000000001      60.859999999999999      59.069999999999993
   253   1      12.530000000000001      62.649999999999999      57.279999999999994
   254   1                   10.74      60.859999999999999      60.859999999999999
   255   1                   10.74      62.649999999999999      62.649999999999999
   256   1      12.530000000000001      60.859999999999999      62.649999999999999
   257   1      12.530000000000001      62.649999999999999      60.859999999999999
   258   1                   10.74      60.859999999999999      64.439999999999998
   259   1                   10.74      62.649999999999999      66.230000000000004
   260   1      12.530000000000001      60.859999999999999      66.230000000000004
   261   1      12.530000000000001      62.649999999999999      64.439999999999998
   262   1                   10.74      60.859999999999999      68.019999999999982
   263   1      12.530000000000001      60.859999999999999      69.810000000000002
   264   1      12.530000000000001      62.649999999999999      68.019999999999982
   265   1      12.530000000000001      64.439999999999998      48.329999999999998
   266   1                   10.74      64.439999999999998      50.120000000000005
   267   1                   10.74      66.230000000000004      51.909999999999997
   268   1      12.530000000000001      64.439999999999998      51.909999999999997
   269   1      12.530000000000001      66.230000000000004      50.120000000000005
   270   1                   10.74      64.439999999999998      53.700000000000003
   271   1                   10.74      66.230000000000004      55.490000000000002
   272   1      12.530000000000001      64.439999999999998      55.490000000000002
   273   1      12.530000000000001      66.230000000000004      53.700000000000003
   274   1                   10.74      64.439999999999998      57.279999999999994
   275   1                   10.74      66.230000000000004      59.069999999999993
   276   1      12.530000000000001      64.439999999999998      59.069999999999993
   277   1      12.530000000000001      66.230000000000004      57.279999999999994
   278   1                   10.74      64.439999999999998      60.859999999999999
   279   1                   10.74      66.230000000000004      62.649999999999999
   280   1      12.530000000000001      64.439999999999998      62.649999999999999
   281   1      12.530000000000001      66.230000000000004      60.859999999999999
   282   1                   10.74      64.439999999999998      64.439999999999998
   283   1      12.530000000000001      64.439999999999998      66.230000000000004
   284   1      12.530000000000001      66.230000000000004      64.439999999999998
   285   1      12.530000000000001      68.019999999999982      51.909999999999997
   286   1                   10.74      68.019999999999982      53.700000000000003
   287   1                   10.74      69.810000000000002      55.490000000000002
   288   1      12.530000000000001      68.019999999999982      55.490000000000002
   289   1      12.530000000000001      69.810000000000002      53.700000000000003
   290   1                   10.74      68.019999999999982      57.279999999999994
   291   1                   10.74      69.810000000000002      59.069999999999993
   292   1      12.530000000000001      68.019999999999982      59.069999999999993
   293   1      12.530000000000001      69.810000000000002      57.279999999999994
   294   1                   10.74      68.019999999999982      60.859999999999999
   295   1      12.530000000000001      68.019999999999982      62.649999999999999
   296   1      12.530000000000001      69.810000000000002      60.859999999999999
   297   1      12.530000000000001      71.600000000000009      55.490000000000002
   298   1                   10.74      71.600000000000009      57.279999999999994
   299   1      12.530000000000001      71.600000000000009      59.069999999999993
   300   1      12.530000000000001      73.390000000000015      57.279999999999994
   301   1      16.109999999999999      37.590000000000003      57.279999999999994
   302   1      14.319999999999999      41.170000000000002      55.490000000000002
   303   1      16.109999999999999      39.380000000000003      55.490000000000002
   304   1      16.109999999999999      41.170000000000002      53.700000000000003
   305   1      14.319999999999999      39.380000000000003      57.279999999999994
   306   1      14.319999999999999      41.170000000000002      59.069999999999993
   307   1      16.109999999999999      39.380000000000003      59.069999999999993
   308   1      16.109999999999999      41.170000000000002      57.279999999999994
   309   1      16.109999999999999      41.170000000000002      60.859999999999999
   310   1      14.319999999999999                   44.75      51.909999999999997
   311   1      16.109999999999999      42.959999999999994      51.909999999999997
   312   1      16.109999999999999                   44.75      50.120000000000005
   313   1      14.319999999999999      42.959999999999994      53.700000000000003
   314   1      14.319999999999999                   44.75      55.490000000000002
   315   1      16.109999999999999      42.959999999999994      55.490000000000002
   316   1      16.109999999999999                   44.75      53.700000000000003
   317   1      14.319999999999999      42.959999999999994      57.279999999999994
   318   1      14.319999999999999                   44.75      59.069999999999993
   319   1      16.109999999999999      42.959999999999994      59.069999999999993
   320   1      16.109999999999999                   44.75      57.279999999999994
   321   1      14.319999999999999      42.959999999999994      60.859999999999999
   322   1      14.319999999999999                   44.75      62.649999999999999
   323   1      16.109999999999999      42.959999999999994      62.649999999999999
   324   1      16.109999999999999                   44.75      60.859999999999999
   325   1      16.109999999999999                   44.75      64.439999999999998
   326   1      14.319999999999999      48.329999999999998      48.329999999999998
   327   1      16.109999999999999      46.540000000000006      48.329999999999998
   328   1      16.109999999999999      48.329999999999998      46.540000000000006
   329   1      14.319999999999999      46.540000000000006      50.120000000000005
   330   1      14.319999999999999      48.329999999999998      51.909999999999997
   331   1      16.109999999999999      46.540000000000006      51.909999999999997
   332   1      16.109999999999999      48.329999999999998      50.120000000000005
   333   1      14.319999999999999      46.540000000000006      53.700000000000003
   334   1      14.319999999999999      48.329999999999998      55.490000000000002
   335   1      16.109999999999999      46.540000000000006      55.490000000000002
   336   1      16.109999999999999      48.329999999999998      53.700000000000003
   337   1      14.319999999999999      46.540000000000006      57.279999999999994
   338   1      14.319999999999999      48.329999999999998      59.069999999999993
   339   1      16.109999999999999      46.540000000000006      59.069999999999993
   340   1      16.109999999999999      48.329999999999998      57.279999999999994
   341   1      14.319999999999999      46.540000000000006      60.859999999999999
   342   1      14.319999999999999      48.329999999999998      62.649999999999999
   343   1      16.109999999999999      46.540000000000006      62.649999999999999
   344   1      16.109999999999999      48.329999999999998      60.859999999999999
   345   1      14.319999999999999      46.540000000000006      64.439999999999998
   346   1      14.319999999999999      48.329999999999998      66.230000000000004
   347   1      16.109999999999999      46.540000000000006      66.230000000000004
   348   1      16.109999999999999      48.329999999999998      64.439999999999998
   349   1      16.109999999999999      48.329999999999998      68.019999999999982
   350   1      14.319999999999999      51.909999999999997                   44.75
   351   1      16.109999999999999      50.120000000000005                   44.75
   352   1      16.109999999999999      51.909999999999997      42.959999999999994
   353   1      14.319999999999999      50.120000000000005      46.540000000000006
   354   1      14.319999999999999      51.909999999999997      48.329999999999998
   355   1      16.109999999999999      50.120000000000005      48.329999999999998
   356   1      16.109999999999999      51.909999999999997      46.540000000000006
   357   1      14.319999999999999      50.120000000000005      50.120000000000005
   358   1      14.319999999999999      51.909999999999997      51.909999999999997