model_files/Pt/Pt_10000/Pt_511/data.Pt_511_fcc_10133 (written by ASE) 

10133 	 atoms 
1  atom types
0.0                      62  xlo xhi
0.0                      62  ylo yhi
0.0                      62  zlo zhi


Atoms 

     1   1      1.9599999999999971      21.559999999999999      31.359999999999996
     2   1      1.9599999999999971      23.519999999999996      29.399999999999999
     3   1      1.9599999999999971      25.479999999999997      27.439999999999994
     4   1      1.9599999999999971      23.519999999999996      33.319999999999993
     5   1      1.9599999999999971      25.479999999999997      31.359999999999996
     6   1      1.9599999999999971      25.479999999999997      35.280000000000001
     7   1      1.9599999999999971      27.439999999999994      25.479999999999997
     8   1      1.9599999999999971      29.399999999999999      23.519999999999996
     9   1      1.9599999999999971      27.439999999999994      29.399999999999999
    10   1      1.9599999999999971      29.399999999999999      27.439999999999994
    11   1      1.9599999999999971      27.439999999999994      33.319999999999993
    12   1      1.9599999999999971      29.399999999999999      31.359999999999996
    13   1      1.9599999999999971      27.439999999999994      37.240000000000002
    14   1      1.9599999999999971      29.399999999999999      35.280000000000001
    15   1      1.9599999999999971      29.399999999999999      39.199999999999996
    16   1      1.9599999999999971      31.359999999999996      21.559999999999999
    17   1      1.9599999999999971      31.359999999999996      25.479999999999997
    18   1      1.9599999999999971      33.319999999999993      23.519999999999996
    19   1      1.9599999999999971      31.359999999999996      29.399999999999999
    20   1      1.9599999999999971      33.319999999999993      27.439999999999994
    21   1                       0      31.359999999999996      31.359999999999996
    22   1      1.9599999999999971      31.359999999999996      33.319999999999993
    23   1      1.9599999999999971      33.319999999999993      31.359999999999996
    24   1      1.9599999999999971      31.359999999999996      37.240000000000002
    25   1      1.9599999999999971      33.319999999999993      35.280000000000001
    26   1      1.9599999999999971      31.359999999999996      41.159999999999997
    27   1      1.9599999999999971      33.319999999999993      39.199999999999996
    28   1      1.9599999999999971      35.280000000000001      25.479999999999997
    29   1      1.9599999999999971      35.280000000000001      29.399999999999999
    30   1      1.9599999999999971      37.240000000000002      27.439999999999994
    31   1      1.9599999999999971      35.280000000000001      33.319999999999993
    32   1      1.9599999999999971      37.240000000000002      31.359999999999996
    33   1      1.9599999999999971      35.280000000000001      37.240000000000002
    34   1      1.9599999999999971      37.240000000000002      35.280000000000001
    35   1      1.9599999999999971      39.199999999999996      29.399999999999999
    36   1      1.9599999999999971      39.199999999999996      33.319999999999993
    37   1      1.9599999999999971      41.159999999999997      31.359999999999996
    38   1       5.879999999999999       5.879999999999999      27.439999999999994
    39   1       5.879999999999999       5.879999999999999      31.359999999999996
    40   1       5.879999999999999       5.879999999999999      35.280000000000001
    41   1       5.879999999999999      7.8399999999999954      25.479999999999997
    42   1       5.879999999999999      9.7999999999999972      23.519999999999996
    43   1       5.879999999999999      7.8399999999999954      29.399999999999999
    44   1       5.879999999999999      9.7999999999999972      27.439999999999994
    45   1       5.879999999999999      7.8399999999999954      33.319999999999993
    46   1       5.879999999999999      9.7999999999999972      31.359999999999996
    47   1       5.879999999999999      7.8399999999999954      37.240000000000002
    48   1       5.879999999999999      9.7999999999999972      35.280000000000001
    49   1       5.879999999999999      9.7999999999999972      39.199999999999996
    50   1       5.879999999999999      11.759999999999998      21.559999999999999
    51   1       5.879999999999999      13.719999999999997      19.599999999999998
    52   1       5.879999999999999      11.759999999999998      25.479999999999997
    53   1       5.879999999999999      13.719999999999997      23.519999999999996
    54   1      3.9199999999999977      13.719999999999997      29.399999999999999
    55   1       5.879999999999999      11.759999999999998      29.399999999999999
    56   1       5.879999999999999      13.719999999999997      27.439999999999994
    57   1      3.9199999999999977      11.759999999999998      31.359999999999996
    58   1      3.9199999999999977      13.719999999999997      33.319999999999993
    59   1       5.879999999999999      11.759999999999998      33.319999999999993
    60   1       5.879999999999999      13.719999999999997      31.359999999999996
    61   1       5.879999999999999      11.759999999999998      37.240000000000002
    62   1       5.879999999999999      13.719999999999997      35.280000000000001
    63   1       5.879999999999999      11.759999999999998      41.159999999999997
    64   1       5.879999999999999      13.719999999999997      39.199999999999996
    65   1       5.879999999999999      13.719999999999997      43.119999999999997
    66   1       5.879999999999999      15.679999999999998      17.640000000000001
    67   1       5.879999999999999      17.640000000000001      15.679999999999998
    68   1       5.879999999999999      15.679999999999998      21.559999999999999
    69   1       5.879999999999999      17.640000000000001      19.599999999999998
    70   1      3.9199999999999977      17.640000000000001      25.479999999999997
    71   1       5.879999999999999      15.679999999999998      25.479999999999997
    72   1       5.879999999999999      17.640000000000001      23.519999999999996
    73   1      3.9199999999999977      15.679999999999998      27.439999999999994
    74   1      3.9199999999999977      17.640000000000001      29.399999999999999
    75   1       5.879999999999999      15.679999999999998      29.399999999999999
    76   1       5.879999999999999      17.640000000000001      27.439999999999994
    77   1      3.9199999999999977      15.679999999999998      31.359999999999996
    78   1      3.9199999999999977      17.640000000000001      33.319999999999993
    79   1       5.879999999999999      15.679999999999998      33.319999999999993
    80   1       5.879999999999999      17.640000000000001      31.359999999999996
    81   1      3.9199999999999977      15.679999999999998      35.280000000000001
    82   1      3.9199999999999977      17.640000000000001      37.240000000000002
    83   1       5.879999999999999      15.679999999999998      37.240000000000002
    84   1       5.879999999999999      17.640000000000001      35.280000000000001
    85   1       5.879999999999999      15.679999999999998      41.159999999999997
    86   1       5.879999999999999      17.640000000000001      39.199999999999996
    87   1       5.879999999999999      15.679999999999998      45.079999999999998
    88   1       5.879999999999999      17.640000000000001      43.119999999999997
    89   1       5.879999999999999      17.640000000000001      47.039999999999999
    90   1       5.879999999999999      19.599999999999998      13.719999999999997
    91   1       5.879999999999999      21.559999999999999      11.759999999999998
    92   1       5.879999999999999      19.599999999999998      17.640000000000001
    93   1       5.879999999999999      21.559999999999999      15.679999999999998
    94   1      3.9199999999999977      21.559999999999999      21.559999999999999
    95   1       5.879999999999999      19.599999999999998      21.559999999999999
    96   1       5.879999999999999      21.559999999999999      19.599999999999998
    97   1      3.9199999999999977      19.599999999999998      23.519999999999996
    98   1      3.9199999999999977      21.559999999999999      25.479999999999997
    99   1       5.879999999999999      19.599999999999998      25.479999999999997
   100   1       5.879999999999999      21.559999999999999      23.519999999999996
   101   1      3.9199999999999977      19.599999999999998      27.439999999999994
   102   1      3.9199999999999977      21.559999999999999      29.399999999999999
   103   1       5.879999999999999      19.599999999999998      29.399999999999999
   104   1       5.879999999999999      21.559999999999999      27.439999999999994
   105   1      3.9199999999999977      19.599999999999998      31.359999999999996
   106   1      3.9199999999999977      21.559999999999999      33.319999999999993
   107   1       5.879999999999999      19.599999999999998      33.319999999999993
   108   1       5.879999999999999      21.559999999999999      31.359999999999996
   109   1      3.9199999999999977      19.599999999999998      35.280000000000001
   110   1      3.9199999999999977      21.559999999999999      37.240000000000002
   111   1       5.879999999999999      19.599999999999998      37.240000000000002
   112   1       5.879999999999999      21.559999999999999      35.280000000000001
   113   1      3.9199999999999977      19.599999999999998      39.199999999999996
   114   1      3.9199999999999977      21.559999999999999      41.159999999999997
   115   1       5.879999999999999      19.599999999999998      41.159999999999997
   116   1       5.879999999999999      21.559999999999999      39.199999999999996
   117   1       5.879999999999999      19.599999999999998      45.079999999999998
   118   1       5.879999999999999      21.559999999999999      43.119999999999997
   119   1       5.879999999999999      19.599999999999998                      49
   120   1       5.879999999999999      21.559999999999999      47.039999999999999
   121   1       5.879999999999999      21.559999999999999      50.959999999999994
   122   1       5.879999999999999      23.519999999999996      9.7999999999999972
   123   1       5.879999999999999      25.479999999999997      7.8399999999999954
   124   1       5.879999999999999      23.519999999999996      13.719999999999997
   125   1       5.879999999999999      25.479999999999997      11.759999999999998
   126   1      3.9199999999999977      25.479999999999997      17.640000000000001
   127   1       5.879999999999999      23.519999999999996      17.640000000000001
   128   1       5.879999999999999      25.479999999999997      15.679999999999998
   129   1      3.9199999999999977      23.519999999999996      19.599999999999998
   130   1      3.9199999999999977      25.479999999999997      21.559999999999999
   131   1       5.879999999999999      23.519999999999996      21.559999999999999
   132   1       5.879999999999999      25.479999999999997      19.599999999999998
   133   1      3.9199999999999977      23.519999999999996      23.519999999999996
   134   1      3.9199999999999977      25.479999999999997      25.479999999999997
   135   1       5.879999999999999      23.519999999999996      25.479999999999997
   136   1       5.879999999999999      25.479999999999997      23.519999999999996
   137   1      3.9199999999999977      23.519999999999996      27.439999999999994
   138   1      3.9199999999999977      25.479999999999997      29.399999999999999
   139   1       5.879999999999999      23.519999999999996      29.399999999999999
   140   1       5.879999999999999      25.479999999999997      27.439999999999994
   141   1      3.9199999999999977      23.519999999999996      31.359999999999996
   142   1      3.9199999999999977      25.479999999999997      33.319999999999993
   143   1       5.879999999999999      23.519999999999996      33.319999999999993
   144   1       5.879999999999999      25.479999999999997      31.359999999999996
   145   1      3.9199999999999977      23.519999999999996      35.280000000000001
   146   1      3.9199999999999977      25.479999999999997      37.240000000000002
   147   1       5.879999999999999      23.519999999999996      37.240000000000002
   148   1       5.879999999999999      25.479999999999997      35.280000000000001
   149   1      3.9199999999999977      23.519999999999996      39.199999999999996
   150   1      3.9199999999999977      25.479999999999997      41.159999999999997
   151   1       5.879999999999999      23.519999999999996      41.159999999999997
   152   1       5.879999999999999      25.479999999999997      39.199999999999996
   153   1      3.9199999999999977      23.519999999999996      43.119999999999997
   154   1      3.9199999999999977      25.479999999999997      45.079999999999998
   155   1       5.879999999999999      23.519999999999996      45.079999999999998
   156   1       5.879999999999999      25.479999999999997      43.119999999999997
   157   1       5.879999999999999      23.519999999999996                      49
   158   1       5.879999999999999      25.479999999999997      47.039999999999999
   159   1       5.879999999999999      23.519999999999996      52.919999999999995
   160   1       5.879999999999999      25.479999999999997      50.959999999999994
   161   1       5.879999999999999      25.479999999999997      54.879999999999988
   162   1       5.879999999999999      27.439999999999994       5.879999999999999
   163   1       5.879999999999999      27.439999999999994      9.7999999999999972
   164   1       5.879999999999999      29.399999999999999      7.8399999999999954
   165   1      3.9199999999999977      29.399999999999999      13.719999999999997
   166   1       5.879999999999999      27.439999999999994      13.719999999999997
   167   1       5.879999999999999      29.399999999999999      11.759999999999998
   168   1      3.9199999999999977      27.439999999999994      15.679999999999998
   169   1      3.9199999999999977      29.399999999999999      17.640000000000001
   170   1       5.879999999999999      27.439999999999994      17.640000000000001
   171   1       5.879999999999999      29.399999999999999      15.679999999999998
   172   1      3.9199999999999977      27.439999999999994      19.599999999999998
   173   1      3.9199999999999977      29.399999999999999      21.559999999999999
   174   1       5.879999999999999      27.439999999999994      21.559999999999999
   175   1       5.879999999999999      29.399999999999999      19.599999999999998
   176   1      3.9199999999999977      27.439999999999994      23.519999999999996
   177   1      3.9199999999999977      29.399999999999999      25.479999999999997
   178   1       5.879999999999999      27.439999999999994      25.479999999999997
   179   1       5.879999999999999      29.399999999999999      23.519999999999996
   180   1      3.9199999999999977      27.439999999999994      27.439999999999994
   181   1      3.9199999999999977      29.399999999999999      29.399999999999999
   182   1       5.879999999999999      27.439999999999994      29.399999999999999
   183   1       5.879999999999999      29.399999999999999      27.439999999999994
   184   1      3.9199999999999977      27.439999999999994      31.359999999999996
   185   1      3.9199999999999977      29.399999999999999      33.319999999999993
   186   1       5.879999999999999      27.439999999999994      33.319999999999993
   187   1       5.879999999999999      29.399999999999999      31.359999999999996
   188   1      3.9199999999999977      27.439999999999994      35.280000000000001
   189   1      3.9199999999999977      29.399999999999999      37.240000000000002
   190   1       5.879999999999999      27.439999999999994      37.240000000000002
   191   1       5.879999999999999      29.399999999999999      35.280000000000001
   192   1      3.9199999999999977      27.439999999999994      39.199999999999996
   193   1      3.9199999999999977      29.399999999999999      41.159999999999997
   194   1       5.879999999999999      27.439999999999994      41.159999999999997
   195   1       5.879999999999999      29.399999999999999      39.199999999999996
   196   1      3.9199999999999977      27.439999999999994      43.119999999999997
   197   1      3.9199999999999977      29.399999999999999      45.079999999999998
   198   1       5.879999999999999      27.439999999999994      45.079999999999998
   199   1       5.879999999999999      29.399999999999999      43.119999999999997
   200   1      3.9199999999999977      27.439999999999994      47.039999999999999
   201   1      3.9199999999999977      29.399999999999999                      49
   202   1       5.879999999999999      27.439999999999994                      49
   203   1       5.879999999999999      29.399999999999999      47.039999999999999
   204   1       5.879999999999999      27.439999999999994      52.919999999999995
   205   1       5.879999999999999      29.399999999999999      50.959999999999994
   206   1       5.879999999999999      27.439999999999994      56.839999999999989
   207   1       5.879999999999999      29.399999999999999      54.879999999999988
   208   1       5.879999999999999      31.359999999999996       5.879999999999999
   209   1       5.879999999999999      31.359999999999996      9.7999999999999972
   210   1       5.879999999999999      33.319999999999993      7.8399999999999954
   211   1      3.9199999999999977      31.359999999999996      11.759999999999998
   212   1      3.9199999999999977      33.319999999999993      13.719999999999997
   213   1       5.879999999999999      31.359999999999996      13.719999999999997
   214   1       5.879999999999999      33.319999999999993      11.759999999999998
   215   1      3.9199999999999977      31.359999999999996      15.679999999999998
   216   1      3.9199999999999977      33.319999999999993      17.640000000000001
   217   1       5.879999999999999      31.359999999999996      17.640000000000001
   218   1       5.879999999999999      33.319999999999993      15.679999999999998
   219   1      3.9199999999999977      31.359999999999996      19.599999999999998
   220   1      3.9199999999999977      33.319999999999993      21.559999999999999
   221   1       5.879999999999999      31.359999999999996      21.559999999999999
   222   1       5.879999999999999      33.319999999999993      19.599999999999998
   223   1      3.9199999999999977      31.359999999999996      23.519999999999996
   224   1      3.9199999999999977      33.319999999999993      25.479999999999997
   225   1       5.879999999999999      31.359999999999996      25.479999999999997
   226   1       5.879999999999999      33.319999999999993      23.519999999999996
   227   1      3.9199999999999977      31.359999999999996      27.439999999999994
   228   1      3.9199999999999977      33.319999999999993      29.399999999999999
   229   1       5.879999999999999      31.359999999999996      29.399999999999999
   230   1       5.879999999999999      33.319999999999993      27.439999999999994
   231   1      3.9199999999999977      31.359999999999996      31.359999999999996
   232   1      3.9199999999999977      33.319999999999993      33.319999999999993
   233   1       5.879999999999999      31.359999999999996      33.319999999999993
   234   1       5.879999999999999      33.319999999999993      31.359999999999996
   235   1      3.9199999999999977      31.359999999999996      35.280000000000001
   236   1      3.9199999999999977      33.319999999999993      37.240000000000002
   237   1       5.879999999999999      31.359999999999996      37.240000000000002
   238   1       5.879999999999999      33.319999999999993      35.280000000000001
   239   1      3.9199999999999977      31.359999999999996      39.199999999999996
   240   1      3.9199999999999977      33.319999999999993      41.159999999999997
   241   1       5.879999999999999      31.359999999999996      41.159999999999997
   242   1       5.879999999999999      33.319999999999993      39.199999999999996
   243   1      3.9199999999999977      31.359999999999996      43.119999999999997
   244   1      3.9199999999999977      33.319999999999993      45.079999999999998
   245   1       5.879999999999999      31.359999999999996      45.079999999999998
   246   1       5.879999999999999      33.319999999999993      43.119999999999997
   247   1      3.9199999999999977      31.359999999999996      47.039999999999999
   248   1      3.9199999999999977      33.319999999999993                      49
   249   1       5.879999999999999      31.359999999999996                      49
   250   1       5.879999999999999      33.319999999999993      47.039999999999999
   251   1      3.9199999999999977      31.359999999999996      50.959999999999994
   252   1       5.879999999999999      31.359999999999996      52.919999999999995
   253   1       5.879999999999999      33.319999999999993      50.959999999999994
   254   1       5.879999999999999      31.359999999999996      56.839999999999989
   255   1       5.879999999999999      33.319999999999993      54.879999999999988
   256   1       5.879999999999999      35.280000000000001       5.879999999999999
   257   1       5.879999999999999      35.280000000000001      9.7999999999999972
   258   1       5.879999999999999      37.240000000000002      7.8399999999999954
   259   1       5.879999999999999      35.280000000000001      13.719999999999997
   260   1       5.879999999999999      37.240000000000002      11.759999999999998
   261   1      3.9199999999999977      35.280000000000001      15.679999999999998
   262   1      3.9199999999999977      37.240000000000002      17.640000000000001
   263   1       5.879999999999999      35.280000000000001      17.640000000000001
   264   1       5.879999999999999      37.240000000000002      15.679999999999998
   265   1      3.9199999999999977      35.280000000000001      19.599999999999998
   266   1      3.9199999999999977      37.240000000000002      21.559999999999999
   267   1       5.879999999999999      35.280000000000001      21.559999999999999
   268   1       5.879999999999999      37.240000000000002      19.599999999999998
   269   1      3.9199999999999977      35.280000000000001      23.519999999999996
   270   1      3.9199999999999977      37.240000000000002      25.479999999999997
   271   1       5.879999999999999      35.280000000000001      25.479999999999997
   272   1       5.879999999999999      37.240000000000002      23.519999999999996
   273   1      3.9199999999999977      35.280000000000001      27.439999999999994
   274   1      3.9199999999999977      37.240000000000002      29.399999999999999
   275   1       5.879999999999999      35.280000000000001      29.399999999999999
   276   1       5.879999999999999      37.240000000000002      27.439999999999994
   277   1      3.9199999999999977      35.280000000000001      31.359999999999996
   278   1      3.9199999999999977      37.240000000000002      33.319999999999993
   279   1       5.879999999999999      35.280000000000001      33.319999999999993
   280   1       5.879999999999999      37.240000000000002      31.359999999999996
   281   1      3.9199999999999977      35.280000000000001      35.280000000000001
   282   1      3.9199999999999977      37.240000000000002      37.240000000000002
   283   1       5.879999999999999      35.280000000000001      37.240000000000002
   284   1       5.879999999999999      37.240000000000002      35.280000000000001
   285   1      3.9199999999999977      35.280000000000001      39.199999999999996
   286   1      3.9199999999999977      37.240000000000002      41.159999999999997
   287   1       5.879999999999999      35.280000000000001      41.159999999999997
   288   1       5.879999999999999      37.240000000000002      39.199999999999996
   289   1      3.9199999999999977      35.280000000000001      43.119999999999997
   290   1      3.9199999999999977      37.240000000000002      45.079999999999998
   291   1       5.879999999999999      35.280000000000001      45.079999999999998
   292   1       5.879999999999999      37.240000000000002      43.119999999999997
   293   1      3.9199999999999977      35.280000000000001      47.039999999999999
   294   1       5.879999999999999      35.280000000000001                      49
   295   1       5.879999999999999      37.240000000000002      47.039999999999999
   296   1       5.879999999999999      35.280000000000001      52.919999999999995
   297   1       5.879999999999999      37.240000000000002      50.959999999999994
   298   1       5.879999999999999      35.280000000000001      56.839999999999989
   299   1       5.879999999999999      37.240000000000002      54.879999999999988
   300   1       5.879999999999999      39.199999999999996      9.7999999999999972
   301   1       5.879999999999999      39.199999999999996      13.719999999999997
   302   1       5.879999999999999      41.159999999999997      11.759999999999998
   303   1       5.879999999999999      39.199999999999996      17.640000000000001
   304   1       5.879999999999999      41.159999999999997      15.679999999999998
   305   1      3.9199999999999977      39.199999999999996      19.599999999999998
   306   1      3.9199999999999977      41.159999999999997      21.559999999999999
   307   1       5.879999999999999      39.199999999999996      21.559999999999999
   308   1       5.879999999999999      41.159999999999997      19.599999999999998
   309   1      3.9199999999999977      39.199999999999996      23.519999999999996
   310   1      3.9199999999999977      41.159999999999997      25.479999999999997
   311   1       5.879999999999999      39.199999999999996      25.479999999999997
   312   1       5.879999999999999      41.159999999999997      23.519999999999996
   313   1      3.9199999999999977      39.199999999999996      27.439999999999994
   314   1      3.9199999999999977      41.159999999999997      29.399999999999999
   315   1       5.879999999999999      39.199999999999996      29.399999999999999
   316   1       5.879999999999999      41.159999999999997      27.439999999999994
   317   1      3.9199999999999977      39.199999999999996      31.359999999999996
   318   1      3.9199999999999977      41.159999999999997      33.319999999999993
   319   1       5.879999999999999      39.199999999999996      33.319999999999993
   320   1       5.879999999999999      41.159999999999997      31.359999999999996
   321   1      3.9199999999999977      39.199999999999996      35.280000000000001
   322   1      3.9199999999999977      41.159999999999997      37.240000000000002
   323   1       5.879999999999999      39.199999999999996      37.240000000000002
   324   1       5.879999999999999      41.159999999999997      35.280000000000001
   325   1      3.9199999999999977      39.199999999999996      39.199999999999996
   326   1      3.9199999999999977      41.159999999999997      41.159999999999997
   327   1       5.879999999999999      39.199999999999996      41.159999999999997
   328   1       5.879999999999999      41.159999999999997      39.199999999999996
   329   1      3.9199999999999977      39.199999999999996      43.119999999999997
   330   1       5.879999999999999      39.199999999999996      45.079999999999998
   331   1       5.879999999999999      41.159999999999997      43.119999999999997
   332   1       5.879999999999999      39.199999999999996                      49
   333   1       5.879999999999999      41.159999999999997      47.039999999999999
   334   1       5.879999999999999      39.199999999999996      52.919999999999995
   335   1       5.879999999999999      41.159999999999997      50.959999999999994
   336   1       5.879999999999999      43.119999999999997      13.719999999999997
   337   1       5.879999999999999      43.119999999999997      17.640000000000001
   338   1       5.879999999999999      45.079999999999998      15.679999999999998
   339   1       5.879999999999999      43.119999999999997      21.559999999999999
   340   1       5.879999999999999      45.079999999999998      19.599999999999998
   341   1      3.9199999999999977      43.119999999999997      23.519999999999996
   342   1      3.9199999999999977      45.079999999999998      25.479999999999997
   343   1       5.879999999999999      43.119999999999997      25.479999999999997
   344   1       5.879999999999999      45.079999999999998      23.519999999999996
   345   1      3.9199999999999977      43.119999999999997      27.439999999999994
   346   1      3.9199999999999977      45.079999999999998      29.399999999999999
   347   1       5.879999999999999      43.119999999999997      29.399999999999999
   348   1       5.879999999999999      45.079999999999998      27.439999999999994
   349   1      3.9199999999999977      43.119999999999997      31.359999999999996
   350   1      3.9199999999999977      45.079999999999998      33.319999999999993
   351   1       5.879999999999999      43.119999999999997      33.319999999999993
   352   1       5.879999999999999      45.079999999999998      31.359999999999996
   353   1      3.9199999999999977      43.119999999999997      35.280000000000001
   354   1      3.9199999999999977      45.079999999999998      37.240000000000002
   355   1       5.879999999999999      43.119999999999997      37.240000000000002
   356   1       5.879999999999999      45.079999999999998      35.280000000000001
   357   1      3.9199999999999977      43.119999999999997      39.199999999999996
   358   1       5.879999999999999      43.119999999999997      41.159999999999997