LAMMPS data file via write_data, version 30 Nov 2020, timestep = 0

30389 atoms
5 atom types

0 90 xlo xhi
0 90 ylo yhi
0 90 zlo zhi

Masses

1 58.7
2 55.8
3 52
4 59
5 26

Atoms # atomic

5 1 3.610000000000007 36.10000000000001 37.905000000000015 0 0 0
6 1 3.610000000000007 36.10000000000001 41.51500000000001 0 0 0
10 5 3.610000000000007 37.905000000000015 36.10000000000001 0 0 0
11 5 1.8050000000000068 39.71000000000001 39.71000000000001 0 0 0
12 2 3.610000000000007 37.905000000000015 39.71000000000001 0 0 0
13 3 3.610000000000007 39.71000000000001 37.905000000000015 0 0 0
14 1 1.8050000000000068 39.71000000000001 43.32000000000001 0 0 0
15 1 3.610000000000007 37.905000000000015 43.32000000000001 0 0 0
16 5 3.610000000000007 39.71000000000001 41.51500000000001 0 0 0
25 3 3.610000000000007 41.51500000000001 36.10000000000001 0 0 0
26 1 1.8050000000000068 43.32000000000001 39.71000000000001 0 0 0
27 3 3.610000000000007 41.51500000000001 39.71000000000001 0 0 0
28 2 3.610000000000007 43.32000000000001 37.905000000000015 0 0 0
29 3 1.8050000000000068 41.51500000000001 41.51500000000001 0 0 0
30 3 1.8050000000000068 43.32000000000001 43.32000000000001 0 0 0
31 2 3.610000000000007 41.51500000000001 43.32000000000001 0 0 0
32 3 3.610000000000007 43.32000000000001 41.51500000000001 0 0 0
90 2 7.220000000000006 28.880000000000006 30.68500000000001 0 0 0
91 4 7.220000000000006 28.880000000000006 34.29500000000001 0 0 0
92 4 7.220000000000006 28.880000000000006 37.905000000000015 0 0 0
93 3 7.220000000000006 28.880000000000006 41.51500000000001 0 0 0
99 3 7.220000000000006 30.68500000000001 28.880000000000006 0 0 0
100 3 5.415000000000006 32.49000000000001 32.49000000000001 0 0 0
101 5 7.220000000000006 30.68500000000001 32.49000000000001 0 0 0
102 4 7.220000000000006 32.49000000000001 30.68500000000001 0 0 0
103 1 5.415000000000006 32.49000000000001 36.10000000000001 0 0 0
104 3 7.220000000000006 30.68500000000001 36.10000000000001 0 0 0
105 2 7.220000000000006 32.49000000000001 34.29500000000001 0 0 0
106 5 5.415000000000006 32.49000000000001 39.71000000000001 0 0 0
107 5 7.220000000000006 30.68500000000001 39.71000000000001 0 0 0
108 1 7.220000000000006 32.49000000000001 37.905000000000015 0 0 0
109 4 5.415000000000006 32.49000000000001 43.32000000000001 0 0 0
110 3 7.220000000000006 30.68500000000001 43.32000000000001 0 0 0
111 3 7.220000000000006 32.49000000000001 41.51500000000001 0 0 0
126 1 7.220000000000006 34.29500000000001 28.880000000000006 0 0 0
127 2 5.415000000000006 36.10000000000001 32.49000000000001 0 0 0
128 1 7.220000000000006 34.29500000000001 32.49000000000001 0 0 0
129 5 7.220000000000006 36.10000000000001 30.68500000000001 0 0 0
130 1 5.415000000000006 34.29500000000001 34.29500000000001 0 0 0
131 2 5.415000000000006 36.10000000000001 36.10000000000001 0 0 0
132 5 7.220000000000006 34.29500000000001 36.10000000000001 0 0 0
133 2 7.220000000000006 36.10000000000001 34.29500000000001 0 0 0
134 5 5.415000000000006 34.29500000000001 37.905000000000015 0 0 0
135 4 5.415000000000006 36.10000000000001 39.71000000000001 0 0 0
136 5 7.220000000000006 34.29500000000001 39.71000000000001 0 0 0
137 4 7.220000000000006 36.10000000000001 37.905000000000015 0 0 0
138 4 5.415000000000006 34.29500000000001 41.51500000000001 0 0 0
139 3 5.415000000000006 36.10000000000001 43.32000000000001 0 0 0
140 3 7.220000000000006 34.29500000000001 43.32000000000001 0 0 0
141 3 7.220000000000006 36.10000000000001 41.51500000000001 0 0 0
160 2 7.220000000000006 37.905000000000015 28.880000000000006 0 0 0
161 5 5.415000000000006 39.71000000000001 32.49000000000001 0 0 0
162 4 7.220000000000006 37.905000000000015 32.49000000000001 0 0 0
163 4 7.220000000000006 39.71000000000001 30.68500000000001 0 0 0
164 2 5.415000000000006 37.905000000000015 34.29500000000001 0 0 0
165 3 5.415000000000006 39.71000000000001 36.10000000000001 0 0 0
166 3 7.220000000000006 37.905000000000015 36.10000000000001 0 0 0
167 4 7.220000000000006 39.71000000000001 34.29500000000001 0 0 0
168 3 5.415000000000006 37.905000000000015 37.905000000000015 0 0 0
169 1 5.415000000000006 39.71000000000001 39.71000000000001 0 0 0
170 1 7.220000000000006 37.905000000000015 39.71000000000001 0 0 0
171 4 7.220000000000006 39.71000000000001 37.905000000000015 0 0 0
172 1 5.415000000000006 37.905000000000015 41.51500000000001 0 0 0
173 4 5.415000000000006 39.71000000000001 43.32000000000001 0 0 0
174 1 7.220000000000006 37.905000000000015 43.32000000000001 0 0 0
175 2 7.220000000000006 39.71000000000001 41.51500000000001 0 0 0
194 4 7.220000000000006 41.51500000000001 28.880000000000006 0 0 0
195 1 5.415000000000006 43.32000000000001 32.49000000000001 0 0 0
196 4 7.220000000000006 41.51500000000001 32.49000000000001 0 0 0
197 2 7.220000000000006 43.32000000000001 30.68500000000001 0 0 0
198 3 5.415000000000006 41.51500000000001 34.29500000000001 0 0 0
199 3 5.415000000000006 43.32000000000001 36.10000000000001 0 0 0
200 4 7.220000000000006 41.51500000000001 36.10000000000001 0 0 0
201 5 7.220000000000006 43.32000000000001 34.29500000000001 0 0 0
202 2 5.415000000000006 41.51500000000001 37.905000000000015 0 0 0
203 5 5.415000000000006 43.32000000000001 39.71000000000001 0 0 0
204 1 7.220000000000006 41.51500000000001 39.71000000000001 0 0 0
205 4 7.220000000000006 43.32000000000001 37.905000000000015 0 0 0
206 3 5.415000000000006 41.51500000000001 41.51500000000001 0 0 0
207 2 5.415000000000006 43.32000000000001 43.32000000000001 0 0 0
208 1 7.220000000000006 41.51500000000001 43.32000000000001 0 0 0
209 2 7.220000000000006 43.32000000000001 41.51500000000001 0 0 0
383 2 10.830000000000005 21.660000000000007 23.465000000000007 0 0 0
384 3 10.830000000000005 21.660000000000007 27.075000000000006 0 0 0
385 3 10.830000000000005 21.660000000000007 30.68500000000001 0 0 0
386 5 10.830000000000005 21.660000000000007 34.29500000000001 0 0 0
387 3 10.830000000000005 21.660000000000007 37.905000000000015 0 0 0
388 2 10.830000000000005 21.660000000000007 41.51500000000001 0 0 0
396 4 10.830000000000005 23.465000000000007 21.660000000000007 0 0 0
397 3 9.025000000000006 25.270000000000007 25.270000000000007 0 0 0
398 3 10.830000000000005 23.465000000000007 25.270000000000007 0 0 0
399 2 10.830000000000005 25.270000000000007 23.465000000000007 0 0 0
400 4 9.025000000000006 25.270000000000007 28.880000000000006 0 0 0
401 2 10.830000000000005 23.465000000000007 28.880000000000006 0 0 0
402 4 10.830000000000005 25.270000000000007 27.075000000000006 0 0 0
403 2 9.025000000000006 25.270000000000007 32.49000000000001 0 0 0
404 2 10.830000000000005 23.465000000000007 32.49000000000001 0 0 0
405 5 10.830000000000005 25.270000000000007 30.68500000000001 0 0 0
406 2 9.025000000000006 25.270000000000007 36.10000000000001 0 0 0
407 5 10.830000000000005 23.465000000000007 36.10000000000001 0 0 0
408 3 10.830000000000005 25.270000000000007 34.29500000000001 0 0 0
409 4 9.025000000000006 25.270000000000007 39.71000000000001 0 0 0
410 3 10.830000000000005 23.465000000000007 39.71000000000001 0 0 0
411 4 10.830000000000005 25.270000000000007 37.905000000000015 0 0 0
412 1 9.025000000000006 25.270000000000007 43.32000000000001 0 0 0
413 4 10.830000000000005 23.465000000000007 43.32000000000001 0 0 0
414 5 10.830000000000005 25.270000000000007 41.51500000000001 0 0 0
435 4 10.830000000000005 27.075000000000006 21.660000000000007 0 0 0
436 3 9.025000000000006 28.880000000000006 25.270000000000007 0 0 0
437 1 10.830000000000005 27.075000000000006 25.270000000000007 0 0 0
438 1 10.830000000000005 28.880000000000006 23.465000000000007 0 0 0
439 3 9.025000000000006 27.075000000000006 27.075000000000006 0 0 0
440 4 9.025000000000006 28.880000000000006 28.880000000000006 0 0 0
441 3 10.830000000000005 27.075000000000006 28.880000000000006 0 0 0
442 5 10.830000000000005 28.880000000000006 27.075000000000006 0 0 0
443 3 9.025000000000006 27.075000000000006 30.68500000000001 0 0 0
444 3 9.025000000000006 28.880000000000006 32.49000000000001 0 0 0
445 1 10.830000000000005 27.075000000000006 32.49000000000001 0 0 0
446 2 10.830000000000005 28.880000000000006 30.68500000000001 0 0 0
447 5 9.025000000000006 27.075000000000006 34.29500000000001 0 0 0
448 2 9.025000000000006 28.880000000000006 36.10000000000001 0 0 0
449 5 10.830000000000005 27.075000000000006 36.10000000000001 0 0 0
450 5 10.830000000000005 28.880000000000006 34.29500000000001 0 0 0
451 1 9.025000000000006 27.075000000000006 37.905000000000015 0 0 0
452 1 9.025000000000006 28.880000000000006 39.71000000000001 0 0 0
453 4 10.830000000000005 27.075000000000006 39.71000000000001 0 0 0
454 4 10.830000000000005 28.880000000000006 37.905000000000015 0 0 0
455 2 9.025000000000006 27.075000000000006 41.51500000000001 0 0 0
456 2 9.025000000000006 28.880000000000006 43.32000000000001 0 0 0
457 1 10.830000000000005 27.075000000000006 43.32000000000001 0 0 0
458 5 10.830000000000005 28.880000000000006 41.51500000000001 0 0 0
485 1 10.830000000000005 30.68500000000001 21.660000000000007 0 0 0
486 2 9.025000000000006 32.49000000000001 25.270000000000007 0 0 0
487 1 10.830000000000005 30.68500000000001 25.270000000000007 0 0 0
488 4 10.830000000000005 32.49000000000001 23.465000000000007 0 0 0
489 3 9.025000000000006 30.68500000000001 27.075000000000006 0 0 0
490 3 9.025000000000006 32.49000000000001 28.880000000000006 0 0 0
491 5 10.830000000000005 30.68500000000001 28.880000000000006 0 0 0
492 4 10.830000000000005 32.49000000000001 27.075000000000006 0 0 0
493 1 9.025000000000006 30.68500000000001 30.68500000000001 0 0 0
494 5 9.025000000000006 32.49000000000001 32.49000000000001 0 0 0
495 5 10.830000000000005 30.68500000000001 32.49000000000001 0 0 0
496 4 10.830000000000005 32.49000000000001 30.68500000000001 0 0 0
497 2 9.025000000000006 30.68500000000001 34.29500000000001 0 0 0
498 2 9.025000000000006 32.49000000000001 36.10000000000001 0 0 0
499 4 10.830000000000005 30.68500000000001 36.10000000000001 0 0 0
500 3 10.830000000000005 32.49000000000001 34.29500000000001 0 0 0
501 2 9.025000000000006 30.68500000000001 37.905000000000015 0 0 0
502 1 9.025000000000006 32.49000000000001 39.71000000000001 0 0 0
503 5 10.830000000000005 30.68500000000001 39.71000000000001 0 0 0
504 4 10.830000000000005 32.49000000000001 37.905000000000015 0 0 0
505 1 9.025000000000006 30.68500000000001 41.51500000000001 0 0 0
506 4 9.025000000000006 32.49000000000001 43.32000000000001 0 0 0
507 5 10.830000000000005 30.68500000000001 43.32000000000001 0 0 0
508 1 10.830000000000005 32.49000000000001 41.51500000000001 0 0 0
535 1 10.830000000000005 34.29500000000001 21.660000000000007 0 0 0
536 1 9.025000000000006 36.10000000000001 25.270000000000007 0 0 0
537 3 10.830000000000005 34.29500000000001 25.270000000000007 0 0 0
538 2 10.830000000000005 36.10000000000001 23.465000000000007 0 0 0
539 4 9.025000000000006 34.29500000000001 27.075000000000006 0 0 0
540 3 9.025000000000006 36.10000000000001 28.880000000000006 0 0 0
541 2 10.830000000000005 34.29500000000001 28.880000000000006 0 0 0
542 1 10.830000000000005 36.10000000000001 27.075000000000006 0 0 0
543 2 9.025000000000006 34.29500000000001 30.68500000000001 0 0 0
544 5 9.025000000000006 36.10000000000001 32.49000000000001 0 0 0
545 1 10.830000000000005 34.29500000000001 32.49000000000001 0 0 0
546 4 10.830000000000005 36.10000000000001 30.68500000000001 0 0 0
547 5 9.025000000000006 34.29500000000001 34.29500000000001 0 0 0
548 2 9.025000000000006 36.10000000000001 36.10000000000001 0 0 0
549 2 10.830000000000005 34.29500000000001 36.10000000000001 0 0 0
550 1 10.830000000000005 36.10000000000001 34.29500000000001 0 0 0
551 4 9.025000000000006 34.29500000000001 37.905000000000015 0 0 0
552 4 9.025000000000006 36.10000000000001 39.71000000000001 0 0 0
553 5 10.830000000000005 34.29500000000001 39.71000000000001 0 0 0
554 1 10.830000000000005 36.10000000000001 37.905000000000015 0 0 0
555 3 9.025000000000006 34.29500000000001 41.51500000000001 0 0 0
556 4 9.025000000000006 36.10000000000001 43.32000000000001 0 0 0
557 3 10.830000000000005 34.29500000000001 43.32000000000001 0 0 0
558 5 10.830000000000005 36.10000000000001 41.51500000000001 0 0 0
585 2 10.830000000000005 37.905000000000015 21.660000000000007 0 0 0
586 3 9.025000000000006 39.71000000000001 25.270000000000007 0 0 0
587 1 10.830000000000005 37.905000000000015 25.270000000000007 0 0 0
588 3 10.830000000000005 39.71000000000001 23.465000000000007 0 0 0
589 2 9.025000000000006 37.905000000000015 27.075000000000006 0 0 0
590 4 9.025000000000006 39.71000000000001 28.880000000000006 0 0 0
591 5 10.830000000000005 37.905000000000015 28.880000000000006 0 0 0
592 1 10.830000000000005 39.71000000000001 27.075000000000006 0 0 0
593 1 9.025000000000006 37.905000000000015 30.68500000000001 0 0 0
594 1 9.025000000000006 39.71000000000001 32.49000000000001 0 0 0
595 1 10.830000000000005 37.905000000000015 32.49000000000001 0 0 0
596 5 10.830000000000005 39.71000000000001 30.68500000000001 0 0 0
597 1 9.025000000000006 37.905000000000015 34.29500000000001 0 0 0
598 4 9.025000000000006 39.71000000000001 36.10000000000001 0 0 0
599 1 10.830000000000005 37.905000000000015 36.10000000000001 0 0 0
600 4 10.830000000000005 39.71000000000001 34.29500000000001 0 0 0
601 4 9.025000000000006 37.905000000000015 37.905000000000015 0 0 0
602 3 9.025000000000006 39.71000000000001 39.71000000000001 0 0 0
603 1 10.830000000000005 37.905000000000015 39.71000000000001 0 0 0
604 3 10.830000000000005 39.71000000000001 37.905000000000015 0 0 0
605 2 9.025000000000006 37.905000000000015 41.51500000000001 0 0 0
606 2 9.025000000000006 39.71000000000001 43.32000000000001 0 0 0
607 1 10.830000000000005 37.905000000000015 43.32000000000001 0 0 0
608 4 10.830000000000005 39.71000000000001 41.51500000000001 0 0 0
635 5 10.830000000000005 41.51500000000001 21.660000000000007 0 0 0
636 2 9.025000000000006 43.32000000000001 25.270000000000007 0 0 0
637 2 10.830000000000005 41.51500000000001 25.270000000000007 0 0 0
638 1 10.830000000000005 43.32000000000001 23.465000000000007 0 0 0
639 4 9.025000000000006 41.51500000000001 27.075000000000006 0 0 0
640 5 9.025000000000006 43.32000000000001 28.880000000000006 0 0 0
641 3 10.830000000000005 41.51500000000001 28.880000000000006 0 0 0
642 3 10.830000000000005 43.32000000000001 27.075000000000006 0 0 0
643 3 9.025000000000006 41.51500000000001 30.68500000000001 0 0 0
644 3 9.025000000000006 43.32000000000001 32.49000000000001 0 0 0
645 1 10.830000000000005 41.51500000000001 32.49000000000001 0 0 0
646 3 10.830000000000005 43.32000000000001 30.68500000000001 0 0 0
647 4 9.025000000000006 41.51500000000001 34.29500000000001 0 0 0
648 1 9.025000000000006 43.32000000000001 36.10000000000001 0 0 0
649 2 10.830000000000005 41.51500000000001 36.10000000000001 0 0 0
650 2 10.830000000000005 43.32000000000001 34.29500000000001 0 0 0
651 3 9.025000000000006 41.51500000000001 37.905000000000015 0 0 0
652 1 9.025000000000006 43.32000000000001 39.71000000000001 0 0 0
653 2 10.830000000000005 41.51500000000001 39.71000000000001 0 0 0
654 1 10.830000000000005 43.32000000000001 37.905000000000015 0 0 0
655 5 9.025000000000006 41.51500000000001 41.51500000000001 0 0 0
656 1 9.025000000000006 43.32000000000001 43.32000000000001 0 0 0
657 3 10.830000000000005 41.51500000000001 43.32000000000001 0 0 0
658 3 10.830000000000005 43.32000000000001 41.51500000000001 0 0 0
1012 3 14.44000000000001 14.44000000000001 16.245000000000008 0 0 0
1013 2 14.44000000000001 14.44000000000001 19.855000000000008 0 0 0
1014 5 14.44000000000001 14.44000000000001 23.465000000000007 0 0 0
1015 3 14.44000000000001 14.44000000000001 27.075000000000006 0 0 0
1016 2 14.44000000000001 14.44000000000001 30.68500000000001 0 0 0
1017 3 14.44000000000001 14.44000000000001 34.29500000000001 0 0 0
1018 1 14.44000000000001 14.44000000000001 37.905000000000015 0 0 0
1019 2 14.44000000000001 14.44000000000001 41.51500000000001 0 0 0
1029 4 14.44000000000001 16.245000000000008 14.44000000000001 0 0 0
1030 1 12.635000000000005 18.050000000000008 18.050000000000008 0 0 0
1031 1 14.44000000000001 16.245000000000008 18.050000000000008 0 0 0
1032 2 14.44000000000001 18.050000000000008 16.245000000000008 0 0 0
1033 1 12.635000000000005 18.050000000000008 21.660000000000007 0 0 0
1034 3 14.44000000000001 16.245000000000008 21.660000000000007 0 0 0
1035 1 14.44000000000001 18.050000000000008 19.855000000000008 0 0 0
1036 2 12.635000000000005 18.050000000000008 25.270000000000007 0 0 0
1037 2 14.44000000000001 16.245000000000008 25.270000000000007 0 0 0
1038 4 14.44000000000001 18.050000000000008 23.465000000000007 0 0 0
1039 3 12.635000000000005 18.050000000000008 28.880000000000006 0 0 0
1040 5 14.44000000000001 16.245000000000008 28.880000000000006 0 0 0
1041 1 14.44000000000001 18.050000000000008 27.075000000000006 0 0 0
1042 4 12.635000000000005 18.050000000000008 32.49000000000001 0 0 0
1043 3 14.44000000000001 16.245000000000008 32.49000000000001 0 0 0
1044 3 14.44000000000001 18.050000000000008 30.68500000000001 0 0 0
1045 2 12.635000000000005 18.050000000000008 36.10000000000001 0 0 0
1046 3 14.44000000000001 16.245000000000008 36.10000000000001 0 0 0
1047 1 14.44000000000001 18.050000000000008 34.29500000000001 0 0 0
1048 1 12.635000000000005 18.050000000000008 39.71000000000001 0 0 0
1049 3 14.44000000000001 16.245000000000008 39.71000000000001 0 0 0
1050 1 14.44000000000001 18.050000000000008 37.905000000000015 0 0 0
1051 3 12.635000000000005 18.050000000000008 43.32000000000001 0 0 0
1052 5 14.44000000000001 16.245000000000008 43.32000000000001 0 0 0
1053 1 14.44000000000001 18.050000000000008 41.51500000000001 0 0 0
1080 2 14.44000000000001 19.855000000000008 14.44000000000001 0 0 0
1081 4 12.635000000000005 21.660000000000007 18.050000000000008 0 0 0
1082 3 14.44000000000001 19.855000000000008 18.050000000000008 0 0 0
1083 2 14.44000000000001 21.660000000000007 16.245000000000008 0 0 0
1084 2 12.635000000000005 19.855000000000008 19.855000000000008 0 0 0
1085 4 12.635000000000005 21.660000000000007 21.660000000000007 0 0 0
1086 1 14.44000000000001 19.855000000000008 21.660000000000007 0 0 0
1087 3 14.44000000000001 21.660000000000007 19.855000000000008 0 0 0
1088 1 12.635000000000005 19.855000000000008 23.465000000000007 0 0 0
1089 2 12.635000000000005 21.660000000000007 25.270000000000007 0 0 0
1090 1 14.44000000000001 19.855000000000008 25.270000000000007 0 0 0
1091 4 14.44000000000001 21.660000000000007 23.465000000000007 0 0 0
1092 4 12.635000000000005 19.855000000000008 27.075000000000006 0 0 0
1093 5 12.635000000000005 21.660000000000007 28.880000000000006 0 0 0
1094 2 14.44000000000001 19.855000000000008 28.880000000000006 0 0 0
1095 4 14.44000000000001 21.660000000000007 27.075000000000006 0 0 0
1096 5 12.635000000000005 19.855000000000008 30.68500000000001 0 0 0
1097 5 12.635000000000005 21.660000000000007 32.49000000000001 0 0 0
1098 4 14.44000000000001 19.855000000000008 32.49000000000001 0 0 0
1099 5 14.44000000000001 21.660000000000007 30.68500000000001 0 0 0
1100 4 12.635000000000005 19.855000000000008 34.29500000000001 0 0 0
1101 2 12.635000000000005 21.660000000000007 36.10000000000001 0 0 0
1102 2 14.44000000000001 19.855000000000008 36.10000000000001 0 0 0
1103 2 14.44000000000001 21.660000000000007 34.29500000000001 0 0 0
1104 5 12.635000000000005 19.855000000000008 37.905000000000015 0 0 0
1105 3 12.635000000000005 21.660000000000007 39.71000000000001 0 0 0
1106 1 14.44000000000001 19.855000000000008 39.71000000000001 0 0 0
1107 2 14.44000000000001 21.660000000000007 37.905000000000015 0 0 0
1108 5 12.635000000000005 19.855000000000008 41.51500000000001 0 0 0
1109 5 12.635000000000005 21.660000000000007 43.32000000000001 0 0 0
1110 4 14.44000000000001 19.855000000000008 43.32000000000001 0 0 0
1111 1 14.44000000000001 21.660000000000007 41.51500000000001 0 0 0
1146 5 14.44000000000001 23.465000000000007 14.44000000000001 0 0 0
1147 5 12.635000000000005 25.270000000000007 18.050000000000008 0 0 0
1148 1 14.44000000000001 23.465000000000007 18.050000000000008 0 0 0
1149 2 14.44000000000001 25.270000000000007 16.245000000000008 0 0 0
1150 2 12.635000000000005 23.465000000000007 19.855000000000008 0 0 0
1151 1 12.635000000000005 25.270000000000007 21.660000000000007 0 0 0
1152 4 14.44000000000001 23.465000000000007 21.660000000000007 0 0 0
1153 5 14.44000000000001 25.270000000000007 19.855000000000008 0 0 0
1154 4 12.635000000000005 23.465000000000007 23.465000000000007 0 0 0
1155 2 12.635000000000005 25.270000000000007 25.270000000000007 0 0 0
1156 2 14.44000000000001 23.465000000000007 25.270000000000007 0 0 0
1157 2 14.44000000000001 25.270000000000007 23.465000000000007 0 0 0
1158 5 12.635000000000005 23.465000000000007 27.075000000000006 0 0 0
1159 4 12.635000000000005 25.270000000000007 28.880000000000006 0 0 0
1160 3 14.44000000000001 23.465000000000007 28.880000000000006 0 0 0
1161 5 14.44000000000001 25.270000000000007 27.075000000000006 0 0 0
1162 4 12.635000000000005 23.465000000000007 30.68500000000001 0 0 0
1163 1 12.635000000000005 25.270000000000007 32.49000000000001 0 0 0
1164 1 14.44000000000001 23.465000000000007 32.49000000000001 0 0 0
1165 4 14.44000000000001 25.270000000000007 30.68500000000001 0 0 0
1166 2 12.635000000000005 23.465000000000007 34.29500000000001 0 0 0
1167 1 12.635000000000005 25.270000000000007 36.10000000000001 0 0 0
1168 2 14.44000000000001 23.465000000000007 36.10000000000001 0 0 0
1169 4 14.44000000000001 25.270000000000007 34.29500000000001 0 0 0
1170 1 12.635000000000005 23.465000000000007 37.905000000000015 0 0 0
1171 4 12.635000000000005 25.270000000000007 39.71000000000001 0 0 0
1172 1 14.44000000000001 23.465000000000007 39.71000000000001 0 0 0
1173 1 14.44000000000001 25.270000000000007 37.905000000000015 0 0 0
1174 4 12.635000000000005 23.465000000000007 41.51500000000001 0 0 0
1175 4 12.635000000000005 25.270000000000007 43.32000000000001 0 0 0
1176 4 14.44000000000001 23.465000000000007 43.32000000000001 0 0 0
1177 5 14.44000000000001 25.270000000000007 41.51500000000001 0 0 0
1212 1 14.44000000000001 27.075000000000006 14.44000000000001 0 0 0
1213 1 12.635000000000005 28.880000000000006 18.050000000000008 0 0 0
1214 5 14.44000000000001 27.075000000000006 18.050000000000008 0 0 0
1215 4 14.44000000000001 28.880000000000006 16.245000000000008 0 0 0
1216 3 12.635000000000005 27.075000000000006 19.855000000000008 0 0 0
1217 4 12.635000000000005 28.880000000000006 21.660000000000007 0 0 0
1218 1 14.44000000000001 27.075000000000006 21.660000000000007 0 0 0
1219 4 14.44000000000001 28.880000000000006 19.855000000000008 0 0 0
1220 4 12.635000000000005 27.075000000000006 23.465000000000007 0 0 0
1221 3 12.635000000000005 28.880000000000006 25.270000000000007 0 0 0
1222 4 14.44000000000001 27.075000000000006 25.270000000000007 0 0 0
1223 4 14.44000000000001 28.880000000000006 23.465000000000007 0 0 0
1224 1 12.635000000000005 27.075000000000006 27.075000000000006 0 0 0
1225 5 12.635000000000005 28.880000000000006 28.880000000000006 0 0 0
1226 3 14.44000000000001 27.075000000000006 28.880000000000006 0 0 0
1227 4 14.44000000000001 28.880000000000006 27.075000000000006 0 0 0
1228 2 12.635000000000005 27.075000000000006 30.68500000000001 0 0 0
1229 3 12.635000000000005 28.880000000000006 32.49000000000001 0 0 0
1230 5 14.44000000000001 27.075000000000006 32.49000000000001 0 0 0
1231 5 14.44000000000001 28.880000000000006 30.68500000000001 0 0 0
1232 4 12.635000000000005 27.075000000000006 34.29500000000001 0 0 0
1233 5 12.635000000000005 28.880000000000006 36.10000000000001 0 0 0
1234 5 14.44000000000001 27.075000000000006 36.10000000000001 0 0 0
1235 2 14.44000000000001 28.880000000000006 34.29500000000001 0 0 0
1236 5 12.635000000000005 27.075000000000006 37.905000000000015 0 0 0
1237 5 12.635000000000005 28.880000000000006 39.71000000000001 0 0 0
1238 1 14.44000000000001 27.075000000000006 39.71000000000001 0 0 0
1239 2 14.44000000000001 28.880000000000006 37.905000000000015 0 0 0
1240 2 12.635000000000005 27.075000000000006 41.51500000000001 0 0 0
1241 3 12.635000000000005 28.880000000000006 43.32000000000001 0 0 0
1242 1 14.44000000000001 27.075000000000006 43.32000000000001 0 0 0
1243 1 14.44000000000001 28.880000000000006 41.51500000000001 0 0 0
1278 1 14.44000000000001 30.68500000000001 14.44000000000001 0 0 0
1279 1 12.635000000000005 32.49000000000001 18.050000000000008 0 0 0
1280 5 14.44000000000001 30.68500000000001 18.050000000000008 0 0 0
1281 3 14.44000000000001 32.49000000000001 16.245000000000008 0 0 0
1282 2 12.635000000000005 30.68500000000001 19.855000000000008 0 0 0
1283 2 12.635000000000005 32.49000000000001 21.660000000000007 0 0 0
1284 3 14.44000000000001 30.68500000000001 21.660000000000007 0 0 0
1285 4 14.44000000000001 32.49000000000001 19.855000000000008 0 0 0
1286 3 12.635000000000005 30.68500000000001 23.465000000000007 0 0 0
1287 3 12.635000000000005 32.49000000000001 25.270000000000007 0 0 0
1288 3 14.44000000000001 30.68500000000001 25.270000000000007 0 0 0
1289 4 14.44000000000001 32.49000000000001 23.465000000000007 0 0 0
1290 1 12.635000000000005 30.68500000000001 27.075000000000006 0 0 0
1291 1 12.635000000000005 32.49000000000001 28.880000000000006 0 0 0
1292 3 14.44000000000001 30.68500000000001 28.880000000000006 0 0 0
1293 3 14.44000000000001 32.49000000000001 27.075000000000006 0 0 0
1294 4 12.635000000000005 30.68500000000001 30.68500000000001 0 0 0
1295 5 12.635000000000005 32.49000000000001 32.49000000000001 0 0 0
1296 5 14.44000000000001 30.68500000000001 32.49000000000001 0 0 0
1297 4 14.44000000000001 32.49000000000001 30.68500000000001 0 0 0
1298 3 12.635000000000005 30.68500000000001 34.29500000000001 0 0 0
1299 2 12.635000000000005 32.49000000000001 36.10000000000001 0 0 0
1300 5 14.44000000000001 30.68500000000001 36.10000000000001 0 0 0
1301 5 14.44000000000001 32.49000000000001 34.29500000000001 0 0 0
1302 2 12.635000000000005 30.68500000000001 37.905000000000015 0 0 0
1303 2 12.635000000000005 32.49000000000001 39.71000000000001 0 0 0
1304 4 14.44000000000001 30.68500000000001 39.71000000000001 0 0 0
1305 4 14.44000000000001 32.49000000000001 37.905000000000015 0 0 0
1306 5 12.635000000000005 30.68500000000001 41.51500000000001 0 0 0
1307 4 12.635000000000005 32.49000000000001 43.32000000000001 0 0 0
1308 4 14.44000000000001 30.68500000000001 43.32000000000001 0 0 0
1309 5 14.44000000000001 32.49000000000001 41.51500000000001 0 0 0
1344 2 14.44000000000001 34.29500000000001 14.44000000000001 0 0 0
1345 1 12.635000000000005 36.10000000000001 18.050000000000008 0 0 0
1346 1 14.44000000000001 34.29500000000001 18.050000000000008 0 0 0
1347 1 14.44000000000001 36.10000000000001 16.245000000000008 0 0 0
1348 4 12.635000000000005 34.29500000000001 19.855000000000008 0 0 0
1349 1 12.635000000000005 36.10000000000001 21.660000000000007 0 0 0
1350 5 14.44000000000001 34.29500000000001 21.660000000000007 0 0 0
1351 5 14.44000000000001 36.10000000000001 19.855000000000008 0 0 0
1352 4 12.635000000000005 34.29500000000001 23.465000000000007 0 0 0
1353 1 12.635000000000005 36.10000000000001 25.270000000000007 0 0 0
1354 2 14.44000000000001 34.29500000000001 25.270000000000007 0 0 0
1355 3 14.44000000000001 36.10000000000001 23.465000000000007 0 0 0
1356 2 12.635000000000005 34.29500000000001 27.075000000000006 0 0 0
1357 5 12.635000000000005 36.10000000000001 28.880000000000006 0 0 0
1358 3 14.44000000000001 34.29500000000001 28.880000000000006 0 0 0
1359 2 14.44000000000001 36.10000000000001 27.075000000000006 0 0 0
1360 4 12.635000000000005 34.29500000000001 30.68500000000001 0 0 0
1361 4 12.635000000000005 36.10000000000001 32.49000000000001 0 0 0
1362 4 14.44000000000001 34.29500000000001 32.49000000000001 0 0 0
1363 2 14.44000000000001 36.10000000000001 30.68500000000001 0 0 0
1364 5 12.635000000000005 34.29500000000001 34.29500000000001 0 0 0
1365 2 12.635000000000005 36.10000000000001 36.10000000000001 0 0 0
1366 4 14.44000000000001 34.29500000000001 36.10000000000001 0 0 0
1367 3 14.44000000000001 36.10000000000001 34.29500000000001 0 0 0
1368 2 12.635000000000005 34.29500000000001 37.905000000000015 0 0 0
1369 2 12.635000000000005 36.10000000000001 39.71000000000001 0 0 0
1370 3 14.44000000000001 34.29500000000001 39.71000000000001 0 0 0
1371 4 14.44000000000001 36.10000000000001 37.905000000000015 0 0 0
1372 2 12.635000000000005 34.29500000000001 41.51500000000001 0 0 0
1373 3 12.635000000000005 36.10000000000001 43.32000000000001 0 0 0
1374 5 14.44000000000001 34.29500000000001 43.32000000000001 0 0 0
1375 1 14.44000000000001 36.10000000000001 41.51500000000001 0 0 0
1410 4 14.44000000000001 37.905000000000015 14.44000000000001 0 0 0
1411 4 12.635000000000005 39.71000000000001 18.050000000000008 0 0 0
1412 4 14.44000000000001 37.905000000000015 18.050000000000008 0 0 0
1413 1 14.44000000000001 39.71000000000001 16.245000000000008 0 0 0
1414 4 12.635000000000005 37.905000000000015 19.855000000000008 0 0 0
1415 5 12.635000000000005 39.71000000000001 21.660000000000007 0 0 0
1416 4 14.44000000000001 37.905000000000015 21.660000000000007 0 0 0
1417 5 14.44000000000001 39.71000000000001 19.855000000000008 0 0 0
1418 4 12.635000000000005 37.905000000000015 23.465000000000007 0 0 0
1419 3 12.635000000000005 39.71000000000001 25.270000000000007 0 0 0
1420 5 14.44000000000001 37.905000000000015 25.270000000000007 0 0 0
1421 2 14.44000000000001 39.71000000000001 23.465000000000007 0 0 0
1422 2 12.635000000000005 37.905000000000015 27.075000000000006 0 0 0
1423 3 12.635000000000005 39.71000000000001 28.880000000000006 0 0 0
1424 1 14.44000000000001 37.905000000000015 28.880000000000006 0 0 0
1425 3 14.44000000000001 39.71000000000001 27.075000000000006 0 0 0
1426 2 12.635000000000005 37.905000000000015 30.68500000000001 0 0 0
1427 4 12.635000000000005 39.71000000000001 32.49000000000001 0 0 0
1428 5 14.44000000000001 37.905000000000015 32.49000000000001 0 0 0
1429 2 14.44000000000001 39.71000000000001 30.68500000000001 0 0 0