model_files/CuNi/CuNi_30000/CuNi_431/CuNi_431_fcc_29685_temp.data (written by ASE) 

29685 	 atoms 
2  atom types
0.0                     101  xlo xhi
0.0                     101  ylo yhi
0.0                     101  zlo zhi


Atoms 

     1   1      1.7829999999999941      44.575000000000003      49.923999999999999
     2   1                       0      48.141000000000005      48.141000000000005
     3   1      1.7829999999999941      46.358000000000004      48.141000000000005
     4   1      1.7829999999999941      48.141000000000005      46.358000000000004
     5   1                       0      46.358000000000004      49.923999999999999
     6   1                       0      48.141000000000005      51.707000000000001
     7   1      1.7829999999999941      46.358000000000004      51.707000000000001
     8   1      1.7829999999999941      48.141000000000005      49.923999999999999
     9   1      1.7829999999999941      48.141000000000005      53.490000000000002
    10   1      1.7829999999999941      49.923999999999999      44.575000000000003
    11   1                       0      49.923999999999999      46.358000000000004
    12   1                       0      51.707000000000001      48.141000000000005
    13   1      1.7829999999999941      49.923999999999999      48.141000000000005
    14   1      1.7829999999999941      51.707000000000001      46.358000000000004
    15   1                       0      49.923999999999999      49.923999999999999
    16   1                       0      51.707000000000001      51.707000000000001
    17   1      1.7829999999999941      49.923999999999999      51.707000000000001
    18   1      1.7829999999999941      51.707000000000001      49.923999999999999
    19   1                       0      49.923999999999999      53.490000000000002
    20   1      1.7829999999999941      49.923999999999999      55.273000000000003
    21   1      1.7829999999999941      51.707000000000001      53.490000000000002
    22   1      1.7829999999999941      53.490000000000002      48.141000000000005
    23   1                       0      53.490000000000002      49.923999999999999
    24   1      1.7829999999999941      53.490000000000002      51.707000000000001
    25   1      1.7829999999999941      55.273000000000003      49.923999999999999
    26   1      5.3489999999999966                  41.009      46.358000000000004
    27   1      5.3489999999999966                  41.009      49.923999999999999
    28   1      5.3489999999999966                  41.009      53.490000000000002
    29   1      3.5659999999999954      44.575000000000003      44.575000000000003
    30   1      5.3489999999999966      42.792000000000002      44.575000000000003
    31   1      5.3489999999999966      44.575000000000003      42.792000000000002
    32   1      3.5659999999999954      42.792000000000002      46.358000000000004
    33   1      3.5659999999999954      44.575000000000003      48.141000000000005
    34   1      5.3489999999999966      42.792000000000002      48.141000000000005
    35   1      5.3489999999999966      44.575000000000003      46.358000000000004
    36   1      3.5659999999999954      42.792000000000002      49.923999999999999
    37   1      3.5659999999999954      44.575000000000003      51.707000000000001
    38   1      5.3489999999999966      42.792000000000002      51.707000000000001
    39   1      5.3489999999999966      44.575000000000003      49.923999999999999
    40   1      3.5659999999999954      42.792000000000002      53.490000000000002
    41   1      3.5659999999999954      44.575000000000003      55.273000000000003
    42   1      5.3489999999999966      42.792000000000002      55.273000000000003
    43   1      5.3489999999999966      44.575000000000003      53.490000000000002
    44   1      5.3489999999999966      44.575000000000003      57.056000000000004
    45   1      5.3489999999999966      46.358000000000004                  41.009
    46   1      3.5659999999999954      46.358000000000004      42.792000000000002
    47   1      3.5659999999999954      48.141000000000005      44.575000000000003
    48   1      5.3489999999999966      46.358000000000004      44.575000000000003
    49   1      5.3489999999999966      48.141000000000005      42.792000000000002
    50   1      3.5659999999999954      46.358000000000004      46.358000000000004
    51   1      3.5659999999999954      48.141000000000005      48.141000000000005
    52   1      5.3489999999999966      46.358000000000004      48.141000000000005
    53   1      5.3489999999999966      48.141000000000005      46.358000000000004
    54   1      3.5659999999999954      46.358000000000004      49.923999999999999
    55   1      3.5659999999999954      48.141000000000005      51.707000000000001
    56   1      5.3489999999999966      46.358000000000004      51.707000000000001
    57   1      5.3489999999999966      48.141000000000005      49.923999999999999
    58   1      3.5659999999999954      46.358000000000004      53.490000000000002
    59   1      3.5659999999999954      48.141000000000005      55.273000000000003
    60   1      5.3489999999999966      46.358000000000004      55.273000000000003
    61   1      5.3489999999999966      48.141000000000005      53.490000000000002
    62   1      3.5659999999999954      46.358000000000004      57.056000000000004
    63   1      5.3489999999999966      46.358000000000004      58.839000000000006
    64   1      5.3489999999999966      48.141000000000005      57.056000000000004
    65   1      5.3489999999999966      49.923999999999999                  41.009
    66   1      3.5659999999999954      49.923999999999999      42.792000000000002
    67   1      3.5659999999999954      51.707000000000001      44.575000000000003
    68   1      5.3489999999999966      49.923999999999999      44.575000000000003
    69   1      5.3489999999999966      51.707000000000001      42.792000000000002
    70   1      3.5659999999999954      49.923999999999999      46.358000000000004
    71   1      3.5659999999999954      51.707000000000001      48.141000000000005
    72   1      5.3489999999999966      49.923999999999999      48.141000000000005
    73   1      5.3489999999999966      51.707000000000001      46.358000000000004
    74   1      3.5659999999999954      49.923999999999999      49.923999999999999
    75   1      3.5659999999999954      51.707000000000001      51.707000000000001
    76   1      5.3489999999999966      49.923999999999999      51.707000000000001
    77   1      5.3489999999999966      51.707000000000001      49.923999999999999
    78   1      3.5659999999999954      49.923999999999999      53.490000000000002
    79   1      3.5659999999999954      51.707000000000001      55.273000000000003
    80   1      5.3489999999999966      49.923999999999999      55.273000000000003
    81   1      5.3489999999999966      51.707000000000001      53.490000000000002
    82   1      3.5659999999999954      49.923999999999999      57.056000000000004
    83   1      5.3489999999999966      49.923999999999999      58.839000000000006
    84   1      5.3489999999999966      51.707000000000001      57.056000000000004
    85   1      5.3489999999999966      53.490000000000002                  41.009
    86   1      3.5659999999999954      53.490000000000002      42.792000000000002
    87   1      3.5659999999999954      55.273000000000003      44.575000000000003
    88   1      5.3489999999999966      53.490000000000002      44.575000000000003
    89   1      5.3489999999999966      55.273000000000003      42.792000000000002
    90   1      3.5659999999999954      53.490000000000002      46.358000000000004
    91   1      3.5659999999999954      55.273000000000003      48.141000000000005
    92   1      5.3489999999999966      53.490000000000002      48.141000000000005
    93   1      5.3489999999999966      55.273000000000003      46.358000000000004
    94   1      3.5659999999999954      53.490000000000002      49.923999999999999
    95   1      3.5659999999999954      55.273000000000003      51.707000000000001
    96   1      5.3489999999999966      53.490000000000002      51.707000000000001
    97   1      5.3489999999999966      55.273000000000003      49.923999999999999
    98   1      3.5659999999999954      53.490000000000002      53.490000000000002
    99   1      3.5659999999999954      55.273000000000003      55.273000000000003
   100   1      5.3489999999999966      53.490000000000002      55.273000000000003
   101   1      5.3489999999999966      55.273000000000003      53.490000000000002
   102   1      3.5659999999999954      53.490000000000002      57.056000000000004
   103   1      5.3489999999999966      53.490000000000002      58.839000000000006
   104   1      5.3489999999999966      55.273000000000003      57.056000000000004
   105   1      5.3489999999999966      57.056000000000004      44.575000000000003
   106   1      3.5659999999999954      57.056000000000004      46.358000000000004
   107   1      5.3489999999999966      57.056000000000004      48.141000000000005
   108   1      5.3489999999999966      58.839000000000006      46.358000000000004
   109   1      3.5659999999999954      57.056000000000004      49.923999999999999
   110   1      5.3489999999999966      57.056000000000004      51.707000000000001
   111   1      5.3489999999999966      58.839000000000006      49.923999999999999
   112   1      3.5659999999999954      57.056000000000004      53.490000000000002
   113   1      5.3489999999999966      57.056000000000004      55.273000000000003
   114   1      5.3489999999999966      58.839000000000006      53.490000000000002
   115   1      8.9149999999999991      37.443000000000005      42.792000000000002
   116   1      7.1319999999999979      37.443000000000005      48.141000000000005
   117   1      8.9149999999999991      35.660000000000004      48.141000000000005
   118   1      8.9149999999999991      37.443000000000005      46.358000000000004
   119   1      7.1319999999999979      37.443000000000005      51.707000000000001
   120   1      8.9149999999999991      35.660000000000004      51.707000000000001
   121   1      8.9149999999999991      37.443000000000005      49.923999999999999
   122   1      8.9149999999999991      37.443000000000005      53.490000000000002
   123   1      8.9149999999999991      37.443000000000005      57.056000000000004
   124   1      7.1319999999999979                  41.009                  41.009
   125   1      8.9149999999999991      39.225999999999999                  41.009
   126   1      8.9149999999999991                  41.009      39.225999999999999
   127   1      7.1319999999999979      39.225999999999999      42.792000000000002
   128   1      7.1319999999999979                  41.009      44.575000000000003
   129   1      8.9149999999999991      39.225999999999999      44.575000000000003
   130   1      8.9149999999999991                  41.009      42.792000000000002
   131   1      7.1319999999999979      39.225999999999999      46.358000000000004
   132   1      7.1319999999999979                  41.009      48.141000000000005
   133   1      8.9149999999999991      39.225999999999999      48.141000000000005
   134   1      8.9149999999999991                  41.009      46.358000000000004
   135   1      7.1319999999999979      39.225999999999999      49.923999999999999
   136   1      7.1319999999999979                  41.009      51.707000000000001
   137   1      8.9149999999999991      39.225999999999999      51.707000000000001
   138   1      8.9149999999999991                  41.009      49.923999999999999
   139   1      7.1319999999999979      39.225999999999999      53.490000000000002
   140   1      7.1319999999999979                  41.009      55.273000000000003
   141   1      8.9149999999999991      39.225999999999999      55.273000000000003
   142   1      8.9149999999999991                  41.009      53.490000000000002
   143   1      7.1319999999999979      39.225999999999999      57.056000000000004
   144   1      7.1319999999999979                  41.009      58.839000000000006
   145   1      8.9149999999999991      39.225999999999999      58.839000000000006
   146   1      8.9149999999999991                  41.009      57.056000000000004
   147   1      8.9149999999999991                  41.009                  60.622
   148   1      8.9149999999999991      42.792000000000002      37.443000000000005
   149   1      7.1319999999999979      42.792000000000002      39.225999999999999
   150   1      7.1319999999999979      44.575000000000003                  41.009
   151   1      8.9149999999999991      42.792000000000002                  41.009
   152   1      8.9149999999999991      44.575000000000003      39.225999999999999
   153   1      7.1319999999999979      42.792000000000002      42.792000000000002
   154   1      7.1319999999999979      44.575000000000003      44.575000000000003
   155   1      8.9149999999999991      42.792000000000002      44.575000000000003
   156   1      8.9149999999999991      44.575000000000003      42.792000000000002
   157   1      7.1319999999999979      42.792000000000002      46.358000000000004
   158   1      7.1319999999999979      44.575000000000003      48.141000000000005
   159   1      8.9149999999999991      42.792000000000002      48.141000000000005
   160   1      8.9149999999999991      44.575000000000003      46.358000000000004
   161   1      7.1319999999999979      42.792000000000002      49.923999999999999
   162   1      7.1319999999999979      44.575000000000003      51.707000000000001
   163   1      8.9149999999999991      42.792000000000002      51.707000000000001
   164   1      8.9149999999999991      44.575000000000003      49.923999999999999
   165   1      7.1319999999999979      42.792000000000002      53.490000000000002
   166   1      7.1319999999999979      44.575000000000003      55.273000000000003
   167   1      8.9149999999999991      42.792000000000002      55.273000000000003
   168   1      8.9149999999999991      44.575000000000003      53.490000000000002
   169   1      7.1319999999999979      42.792000000000002      57.056000000000004
   170   1      7.1319999999999979      44.575000000000003      58.839000000000006
   171   1      8.9149999999999991      42.792000000000002      58.839000000000006
   172   1      8.9149999999999991      44.575000000000003      57.056000000000004
   173   1      7.1319999999999979      42.792000000000002                  60.622
   174   1      8.9149999999999991      42.792000000000002      62.405000000000001
   175   1      8.9149999999999991      44.575000000000003                  60.622
   176   1      7.1319999999999979      48.141000000000005      37.443000000000005
   177   1      8.9149999999999991      46.358000000000004      37.443000000000005
   178   1      8.9149999999999991      48.141000000000005      35.660000000000004
   179   1      7.1319999999999979      46.358000000000004      39.225999999999999
   180   1      7.1319999999999979      48.141000000000005                  41.009
   181   1      8.9149999999999991      46.358000000000004                  41.009
   182   1      8.9149999999999991      48.141000000000005      39.225999999999999
   183   1      7.1319999999999979      46.358000000000004      42.792000000000002
   184   1      7.1319999999999979      48.141000000000005      44.575000000000003
   185   1      8.9149999999999991      46.358000000000004      44.575000000000003
   186   1      8.9149999999999991      48.141000000000005      42.792000000000002
   187   1      7.1319999999999979      46.358000000000004      46.358000000000004
   188   1      7.1319999999999979      48.141000000000005      48.141000000000005
   189   1      8.9149999999999991      46.358000000000004      48.141000000000005
   190   1      8.9149999999999991      48.141000000000005      46.358000000000004
   191   1      7.1319999999999979      46.358000000000004      49.923999999999999
   192   1      7.1319999999999979      48.141000000000005      51.707000000000001
   193   1      8.9149999999999991      46.358000000000004      51.707000000000001
   194   1      8.9149999999999991      48.141000000000005      49.923999999999999
   195   1      7.1319999999999979      46.358000000000004      53.490000000000002
   196   1      7.1319999999999979      48.141000000000005      55.273000000000003
   197   1      8.9149999999999991      46.358000000000004      55.273000000000003
   198   1      8.9149999999999991      48.141000000000005      53.490000000000002
   199   1      7.1319999999999979      46.358000000000004      57.056000000000004
   200   1      7.1319999999999979      48.141000000000005      58.839000000000006
   201   1      8.9149999999999991      46.358000000000004      58.839000000000006
   202   1      8.9149999999999991      48.141000000000005      57.056000000000004
   203   1      7.1319999999999979      46.358000000000004                  60.622
   204   1      7.1319999999999979      48.141000000000005      62.405000000000001
   205   1      8.9149999999999991      46.358000000000004      62.405000000000001
   206   1      8.9149999999999991      48.141000000000005                  60.622
   207   1      8.9149999999999991      48.141000000000005      64.188000000000002
   208   1      7.1319999999999979      51.707000000000001      37.443000000000005
   209   1      8.9149999999999991      49.923999999999999      37.443000000000005
   210   1      8.9149999999999991      51.707000000000001      35.660000000000004
   211   1      7.1319999999999979      49.923999999999999      39.225999999999999
   212   1      7.1319999999999979      51.707000000000001                  41.009
   213   1      8.9149999999999991      49.923999999999999                  41.009
   214   1      8.9149999999999991      51.707000000000001      39.225999999999999
   215   1      7.1319999999999979      49.923999999999999      42.792000000000002
   216   1      7.1319999999999979      51.707000000000001      44.575000000000003
   217   1      8.9149999999999991      49.923999999999999      44.575000000000003
   218   1      8.9149999999999991      51.707000000000001      42.792000000000002
   219   1      7.1319999999999979      49.923999999999999      46.358000000000004
   220   1      7.1319999999999979      51.707000000000001      48.141000000000005
   221   1      8.9149999999999991      49.923999999999999      48.141000000000005
   222   1      8.9149999999999991      51.707000000000001      46.358000000000004
   223   1      7.1319999999999979      49.923999999999999      49.923999999999999
   224   1      7.1319999999999979      51.707000000000001      51.707000000000001
   225   1      8.9149999999999991      49.923999999999999      51.707000000000001
   226   1      8.9149999999999991      51.707000000000001      49.923999999999999
   227   1      7.1319999999999979      49.923999999999999      53.490000000000002
   228   1      7.1319999999999979      51.707000000000001      55.273000000000003
   229   1      8.9149999999999991      49.923999999999999      55.273000000000003
   230   1      8.9149999999999991      51.707000000000001      53.490000000000002
   231   1      7.1319999999999979      49.923999999999999      57.056000000000004
   232   1      7.1319999999999979      51.707000000000001      58.839000000000006
   233   1      8.9149999999999991      49.923999999999999      58.839000000000006
   234   1      8.9149999999999991      51.707000000000001      57.056000000000004
   235   1      7.1319999999999979      49.923999999999999                  60.622
   236   1      7.1319999999999979      51.707000000000001      62.405000000000001
   237   1      8.9149999999999991      49.923999999999999      62.405000000000001
   238   1      8.9149999999999991      51.707000000000001                  60.622
   239   1      8.9149999999999991      51.707000000000001      64.188000000000002
   240   1      8.9149999999999991      53.490000000000002      37.443000000000005
   241   1      7.1319999999999979      53.490000000000002      39.225999999999999
   242   1      7.1319999999999979      55.273000000000003                  41.009
   243   1      8.9149999999999991      53.490000000000002                  41.009
   244   1      8.9149999999999991      55.273000000000003      39.225999999999999
   245   1      7.1319999999999979      53.490000000000002      42.792000000000002
   246   1      7.1319999999999979      55.273000000000003      44.575000000000003
   247   1      8.9149999999999991      53.490000000000002      44.575000000000003
   248   1      8.9149999999999991      55.273000000000003      42.792000000000002
   249   1      7.1319999999999979      53.490000000000002      46.358000000000004
   250   1      7.1319999999999979      55.273000000000003      48.141000000000005
   251   1      8.9149999999999991      53.490000000000002      48.141000000000005
   252   1      8.9149999999999991      55.273000000000003      46.358000000000004
   253   1      7.1319999999999979      53.490000000000002      49.923999999999999
   254   1      7.1319999999999979      55.273000000000003      51.707000000000001
   255   1      8.9149999999999991      53.490000000000002      51.707000000000001
   256   1      8.9149999999999991      55.273000000000003      49.923999999999999
   257   1      7.1319999999999979      53.490000000000002      53.490000000000002
   258   1      7.1319999999999979      55.273000000000003      55.273000000000003
   259   1      8.9149999999999991      53.490000000000002      55.273000000000003
   260   1      8.9149999999999991      55.273000000000003      53.490000000000002
   261   1      7.1319999999999979      53.490000000000002      57.056000000000004
   262   1      7.1319999999999979      55.273000000000003      58.839000000000006
   263   1      8.9149999999999991      53.490000000000002      58.839000000000006
   264   1      8.9149999999999991      55.273000000000003      57.056000000000004
   265   1      7.1319999999999979      53.490000000000002                  60.622
   266   1      8.9149999999999991      53.490000000000002      62.405000000000001
   267   1      8.9149999999999991      55.273000000000003                  60.622
   268   1      8.9149999999999991      57.056000000000004      37.443000000000005
   269   1      7.1319999999999979      57.056000000000004      39.225999999999999
   270   1      7.1319999999999979      58.839000000000006                  41.009
   271   1      8.9149999999999991      57.056000000000004                  41.009
   272   1      8.9149999999999991      58.839000000000006      39.225999999999999
   273   1      7.1319999999999979      57.056000000000004      42.792000000000002
   274   1      7.1319999999999979      58.839000000000006      44.575000000000003
   275   1      8.9149999999999991      57.056000000000004      44.575000000000003
   276   1      8.9149999999999991      58.839000000000006      42.792000000000002
   277   1      7.1319999999999979      57.056000000000004      46.358000000000004
   278   1      7.1319999999999979      58.839000000000006      48.141000000000005
   279   1      8.9149999999999991      57.056000000000004      48.141000000000005
   280   1      8.9149999999999991      58.839000000000006      46.358000000000004
   281   1      7.1319999999999979      57.056000000000004      49.923999999999999
   282   1      7.1319999999999979      58.839000000000006      51.707000000000001
   283   1      8.9149999999999991      57.056000000000004      51.707000000000001
   284   1      8.9149999999999991      58.839000000000006      49.923999999999999
   285   1      7.1319999999999979      57.056000000000004      53.490000000000002
   286   1      7.1319999999999979      58.839000000000006      55.273000000000003
   287   1      8.9149999999999991      57.056000000000004      55.273000000000003
   288   1      8.9149999999999991      58.839000000000006      53.490000000000002
   289   1      7.1319999999999979      57.056000000000004      57.056000000000004
   290   1      7.1319999999999979      58.839000000000006      58.839000000000006
   291   1      8.9149999999999991      57.056000000000004      58.839000000000006
   292   1      8.9149999999999991      58.839000000000006      57.056000000000004
   293   1      7.1319999999999979      57.056000000000004                  60.622
   294   1      8.9149999999999991      57.056000000000004      62.405000000000001
   295   1      8.9149999999999991      58.839000000000006                  60.622
   296   1      8.9149999999999991                  60.622                  41.009
   297   1      7.1319999999999979                  60.622      42.792000000000002
   298   1      8.9149999999999991                  60.622      44.575000000000003
   299   1      8.9149999999999991      62.405000000000001      42.792000000000002
   300   1      7.1319999999999979                  60.622      46.358000000000004
   301   1      7.1319999999999979      62.405000000000001      48.141000000000005
   302   1      8.9149999999999991                  60.622      48.141000000000005
   303   1      8.9149999999999991      62.405000000000001      46.358000000000004
   304   1      7.1319999999999979                  60.622      49.923999999999999
   305   1      7.1319999999999979      62.405000000000001      51.707000000000001
   306   1      8.9149999999999991                  60.622      51.707000000000001
   307   1      8.9149999999999991      62.405000000000001      49.923999999999999
   308   1      7.1319999999999979                  60.622      53.490000000000002
   309   1      8.9149999999999991                  60.622      55.273000000000003
   310   1      8.9149999999999991      62.405000000000001      53.490000000000002
   311   1      7.1319999999999979                  60.622      57.056000000000004
   312   1      8.9149999999999991                  60.622      58.839000000000006
   313   1      8.9149999999999991      62.405000000000001      57.056000000000004
   314   1      8.9149999999999991      64.188000000000002      48.141000000000005
   315   1      8.9149999999999991      64.188000000000002      51.707000000000001
   316   1      12.481000000000002                  30.311      49.923999999999999
   317   1      12.481000000000002      33.877000000000002      39.225999999999999
   318   1                  10.698      33.877000000000002      44.575000000000003
   319   1      12.481000000000002      32.094000000000001      44.575000000000003
   320   1      12.481000000000002      33.877000000000002      42.792000000000002
   321   1                  10.698      33.877000000000002      48.141000000000005
   322   1      12.481000000000002      32.094000000000001      48.141000000000005
   323   1      12.481000000000002      33.877000000000002      46.358000000000004
   324   1                  10.698      32.094000000000001      49.923999999999999
   325   1                  10.698      33.877000000000002      51.707000000000001
   326   1      12.481000000000002      32.094000000000001      51.707000000000001
   327   1      12.481000000000002      33.877000000000002      49.923999999999999
   328   1                  10.698      33.877000000000002      55.273000000000003
   329   1      12.481000000000002      32.094000000000001      55.273000000000003
   330   1      12.481000000000002      33.877000000000002      53.490000000000002
   331   1      12.481000000000002      33.877000000000002      57.056000000000004
   332   1      12.481000000000002      33.877000000000002                  60.622
   333   1                  10.698      37.443000000000005      37.443000000000005
   334   1      12.481000000000002      35.660000000000004      37.443000000000005
   335   1      12.481000000000002      37.443000000000005      35.660000000000004
   336   1                  10.698      35.660000000000004      39.225999999999999
   337   1                  10.698      37.443000000000005                  41.009
   338   1      12.481000000000002      35.660000000000004                  41.009
   339   1      12.481000000000002      37.443000000000005      39.225999999999999
   340   1                  10.698      35.660000000000004      42.792000000000002
   341   1                  10.698      37.443000000000005      44.575000000000003
   342   1      12.481000000000002      35.660000000000004      44.575000000000003
   343   1      12.481000000000002      37.443000000000005      42.792000000000002
   344   1                  10.698      35.660000000000004      46.358000000000004
   345   1                  10.698      37.443000000000005      48.141000000000005
   346   1      12.481000000000002      35.660000000000004      48.141000000000005
   347   1      12.481000000000002      37.443000000000005      46.358000000000004
   348   1                  10.698      35.660000000000004      49.923999999999999
   349   1                  10.698      37.443000000000005      51.707000000000001
   350   1      12.481000000000002      35.660000000000004      51.707000000000001
   351   1      12.481000000000002      37.443000000000005      49.923999999999999
   352   1                  10.698      35.660000000000004      53.490000000000002
   353   1                  10.698      37.443000000000005      55.273000000000003
   354   1      12.481000000000002      35.660000000000004      55.273000000000003
   355   1      12.481000000000002      37.443000000000005      53.490000000000002
   356   1                  10.698      35.660000000000004      57.056000000000004
   357   1                  10.698      37.443000000000005      58.839000000000006
   358   1      12.481000000000002      35.660000000000004      58.839000000000006