model_files/Ag/Ag_30000/Ag_322/data.Ag_322_fcc_30187 (written by ASE) 

30187 	 atoms 
1  atom types
0.0                     122  xlo xhi
0.0                     122  ylo yhi
0.0                     122  zlo zhi


Atoms 

     1   1      2.0449999999999946                  59.305      61.349999999999994
     2   1      2.0449999999999946      61.349999999999994                  59.305
     3   1                       0      61.349999999999994      61.349999999999994
     4   1      2.0449999999999946      61.349999999999994      63.395000000000003
     5   1      2.0449999999999946      63.395000000000003      61.349999999999994
     6   1      6.1349999999999989                  51.125      61.349999999999994
     7   1      4.0899999999999972      55.214999999999996                  59.305
     8   1      6.1349999999999989      53.170000000000002                  59.305
     9   1      6.1349999999999989      55.214999999999996      57.259999999999991
    10   1      4.0899999999999972      53.170000000000002      61.349999999999994
    11   1      4.0899999999999972      55.214999999999996      63.395000000000003
    12   1      6.1349999999999989      53.170000000000002      63.395000000000003
    13   1      6.1349999999999989      55.214999999999996      61.349999999999994
    14   1      6.1349999999999989      55.214999999999996      65.439999999999998
    15   1      4.0899999999999972                  59.305      55.214999999999996
    16   1      6.1349999999999989      57.259999999999991      55.214999999999996
    17   1      6.1349999999999989                  59.305      53.170000000000002
    18   1      4.0899999999999972      57.259999999999991      57.259999999999991
    19   1      4.0899999999999972                  59.305                  59.305
    20   1      6.1349999999999989      57.259999999999991                  59.305
    21   1      6.1349999999999989                  59.305      57.259999999999991
    22   1      4.0899999999999972      57.259999999999991      61.349999999999994
    23   1      4.0899999999999972                  59.305      63.395000000000003
    24   1      6.1349999999999989      57.259999999999991      63.395000000000003
    25   1      6.1349999999999989                  59.305      61.349999999999994
    26   1      4.0899999999999972      57.259999999999991      65.439999999999998
    27   1      4.0899999999999972                  59.305      67.485000000000014
    28   1      6.1349999999999989      57.259999999999991      67.485000000000014
    29   1      6.1349999999999989                  59.305      65.439999999999998
    30   1      6.1349999999999989                  59.305      69.530000000000001
    31   1      6.1349999999999989      61.349999999999994                  51.125
    32   1      4.0899999999999972      61.349999999999994      53.170000000000002
    33   1      4.0899999999999972      63.395000000000003      55.214999999999996
    34   1      6.1349999999999989      61.349999999999994      55.214999999999996
    35   1      6.1349999999999989      63.395000000000003      53.170000000000002
    36   1      4.0899999999999972      61.349999999999994      57.259999999999991
    37   1      4.0899999999999972      63.395000000000003                  59.305
    38   1      6.1349999999999989      61.349999999999994                  59.305
    39   1      6.1349999999999989      63.395000000000003      57.259999999999991
    40   1      4.0899999999999972      61.349999999999994      61.349999999999994
    41   1      4.0899999999999972      63.395000000000003      63.395000000000003
    42   1      6.1349999999999989      61.349999999999994      63.395000000000003
    43   1      6.1349999999999989      63.395000000000003      61.349999999999994
    44   1      4.0899999999999972      61.349999999999994      65.439999999999998
    45   1      4.0899999999999972      63.395000000000003      67.485000000000014
    46   1      6.1349999999999989      61.349999999999994      67.485000000000014
    47   1      6.1349999999999989      63.395000000000003      65.439999999999998
    48   1      4.0899999999999972      61.349999999999994      69.530000000000001
    49   1      6.1349999999999989      61.349999999999994      71.575000000000003
    50   1      6.1349999999999989      63.395000000000003      69.530000000000001
    51   1      6.1349999999999989      65.439999999999998      55.214999999999996
    52   1      4.0899999999999972      65.439999999999998      57.259999999999991
    53   1      4.0899999999999972      67.485000000000014                  59.305
    54   1      6.1349999999999989      65.439999999999998                  59.305
    55   1      6.1349999999999989      67.485000000000014      57.259999999999991
    56   1      4.0899999999999972      65.439999999999998      61.349999999999994
    57   1      4.0899999999999972      67.485000000000014      63.395000000000003
    58   1      6.1349999999999989      65.439999999999998      63.395000000000003
    59   1      6.1349999999999989      67.485000000000014      61.349999999999994
    60   1      4.0899999999999972      65.439999999999998      65.439999999999998
    61   1      6.1349999999999989      65.439999999999998      67.485000000000014
    62   1      6.1349999999999989      67.485000000000014      65.439999999999998
    63   1      6.1349999999999989      69.530000000000001                  59.305
    64   1      4.0899999999999972      69.530000000000001      61.349999999999994
    65   1      6.1349999999999989      69.530000000000001      63.395000000000003
    66   1      6.1349999999999989      71.575000000000003      61.349999999999994
    67   1      10.224999999999994      47.034999999999997      61.349999999999994
    68   1      8.1799999999999944                  51.125                  59.305
    69   1      10.224999999999994      49.080000000000005                  59.305
    70   1      10.224999999999994                  51.125      57.259999999999991
    71   1      8.1799999999999944      49.080000000000005      61.349999999999994
    72   1      8.1799999999999944                  51.125      63.395000000000003
    73   1      10.224999999999994      49.080000000000005      63.395000000000003
    74   1      10.224999999999994                  51.125      61.349999999999994
    75   1      10.224999999999994                  51.125      65.439999999999998
    76   1      8.1799999999999944      55.214999999999996      55.214999999999996
    77   1      10.224999999999994      53.170000000000002      55.214999999999996
    78   1      10.224999999999994      55.214999999999996      53.170000000000002
    79   1      8.1799999999999944      53.170000000000002      57.259999999999991
    80   1      8.1799999999999944      55.214999999999996                  59.305
    81   1      10.224999999999994      53.170000000000002                  59.305
    82   1      10.224999999999994      55.214999999999996      57.259999999999991
    83   1      8.1799999999999944      53.170000000000002      61.349999999999994
    84   1      8.1799999999999944      55.214999999999996      63.395000000000003
    85   1      10.224999999999994      53.170000000000002      63.395000000000003
    86   1      10.224999999999994      55.214999999999996      61.349999999999994
    87   1      8.1799999999999944      53.170000000000002      65.439999999999998
    88   1      8.1799999999999944      55.214999999999996      67.485000000000014
    89   1      10.224999999999994      53.170000000000002      67.485000000000014
    90   1      10.224999999999994      55.214999999999996      65.439999999999998
    91   1      10.224999999999994      55.214999999999996      69.530000000000001
    92   1      8.1799999999999944                  59.305                  51.125
    93   1      10.224999999999994      57.259999999999991                  51.125
    94   1      10.224999999999994                  59.305      49.080000000000005
    95   1      8.1799999999999944      57.259999999999991      53.170000000000002
    96   1      8.1799999999999944                  59.305      55.214999999999996
    97   1      10.224999999999994      57.259999999999991      55.214999999999996
    98   1      10.224999999999994                  59.305      53.170000000000002
    99   1      8.1799999999999944      57.259999999999991      57.259999999999991
   100   1      8.1799999999999944                  59.305                  59.305
   101   1      10.224999999999994      57.259999999999991                  59.305
   102   1      10.224999999999994                  59.305      57.259999999999991
   103   1      8.1799999999999944      57.259999999999991      61.349999999999994
   104   1      8.1799999999999944                  59.305      63.395000000000003
   105   1      10.224999999999994      57.259999999999991      63.395000000000003
   106   1      10.224999999999994                  59.305      61.349999999999994
   107   1      8.1799999999999944      57.259999999999991      65.439999999999998
   108   1      8.1799999999999944                  59.305      67.485000000000014
   109   1      10.224999999999994      57.259999999999991      67.485000000000014
   110   1      10.224999999999994                  59.305      65.439999999999998
   111   1      8.1799999999999944      57.259999999999991      69.530000000000001
   112   1      8.1799999999999944                  59.305      71.575000000000003
   113   1      10.224999999999994      57.259999999999991      71.575000000000003
   114   1      10.224999999999994                  59.305      69.530000000000001
   115   1      10.224999999999994                  59.305       73.61999999999999
   116   1      10.224999999999994      61.349999999999994      47.034999999999997
   117   1      8.1799999999999944      61.349999999999994      49.080000000000005
   118   1      8.1799999999999944      63.395000000000003                  51.125
   119   1      10.224999999999994      61.349999999999994                  51.125
   120   1      10.224999999999994      63.395000000000003      49.080000000000005
   121   1      8.1799999999999944      61.349999999999994      53.170000000000002
   122   1      8.1799999999999944      63.395000000000003      55.214999999999996
   123   1      10.224999999999994      61.349999999999994      55.214999999999996
   124   1      10.224999999999994      63.395000000000003      53.170000000000002
   125   1      8.1799999999999944      61.349999999999994      57.259999999999991
   126   1      8.1799999999999944      63.395000000000003                  59.305
   127   1      10.224999999999994      61.349999999999994                  59.305
   128   1      10.224999999999994      63.395000000000003      57.259999999999991
   129   1      8.1799999999999944      61.349999999999994      61.349999999999994
   130   1      8.1799999999999944      63.395000000000003      63.395000000000003
   131   1      10.224999999999994      61.349999999999994      63.395000000000003
   132   1      10.224999999999994      63.395000000000003      61.349999999999994
   133   1      8.1799999999999944      61.349999999999994      65.439999999999998
   134   1      8.1799999999999944      63.395000000000003      67.485000000000014
   135   1      10.224999999999994      61.349999999999994      67.485000000000014
   136   1      10.224999999999994      63.395000000000003      65.439999999999998
   137   1      8.1799999999999944      61.349999999999994      69.530000000000001
   138   1      8.1799999999999944      63.395000000000003      71.575000000000003
   139   1      10.224999999999994      61.349999999999994      71.575000000000003
   140   1      10.224999999999994      63.395000000000003      69.530000000000001
   141   1      8.1799999999999944      61.349999999999994       73.61999999999999
   142   1      10.224999999999994      61.349999999999994      75.664999999999992
   143   1      10.224999999999994      63.395000000000003       73.61999999999999
   144   1      10.224999999999994      65.439999999999998                  51.125
   145   1      8.1799999999999944      65.439999999999998      53.170000000000002
   146   1      8.1799999999999944      67.485000000000014      55.214999999999996
   147   1      10.224999999999994      65.439999999999998      55.214999999999996
   148   1      10.224999999999994      67.485000000000014      53.170000000000002
   149   1      8.1799999999999944      65.439999999999998      57.259999999999991
   150   1      8.1799999999999944      67.485000000000014                  59.305
   151   1      10.224999999999994      65.439999999999998                  59.305
   152   1      10.224999999999994      67.485000000000014      57.259999999999991
   153   1      8.1799999999999944      65.439999999999998      61.349999999999994
   154   1      8.1799999999999944      67.485000000000014      63.395000000000003
   155   1      10.224999999999994      65.439999999999998      63.395000000000003
   156   1      10.224999999999994      67.485000000000014      61.349999999999994
   157   1      8.1799999999999944      65.439999999999998      65.439999999999998
   158   1      8.1799999999999944      67.485000000000014      67.485000000000014
   159   1      10.224999999999994      65.439999999999998      67.485000000000014
   160   1      10.224999999999994      67.485000000000014      65.439999999999998
   161   1      8.1799999999999944      65.439999999999998      69.530000000000001
   162   1      10.224999999999994      65.439999999999998      71.575000000000003
   163   1      10.224999999999994      67.485000000000014      69.530000000000001
   164   1      10.224999999999994      69.530000000000001      55.214999999999996
   165   1      8.1799999999999944      69.530000000000001      57.259999999999991
   166   1      8.1799999999999944      71.575000000000003                  59.305
   167   1      10.224999999999994      69.530000000000001                  59.305
   168   1      10.224999999999994      71.575000000000003      57.259999999999991
   169   1      8.1799999999999944      69.530000000000001      61.349999999999994
   170   1      8.1799999999999944      71.575000000000003      63.395000000000003
   171   1      10.224999999999994      69.530000000000001      63.395000000000003
   172   1      10.224999999999994      71.575000000000003      61.349999999999994
   173   1      8.1799999999999944      69.530000000000001      65.439999999999998
   174   1      10.224999999999994      69.530000000000001      67.485000000000014
   175   1      10.224999999999994      71.575000000000003      65.439999999999998
   176   1      10.224999999999994       73.61999999999999                  59.305
   177   1      8.1799999999999944       73.61999999999999      61.349999999999994
   178   1      10.224999999999994       73.61999999999999      63.395000000000003
   179   1      10.224999999999994      75.664999999999992      61.349999999999994
   180   1      14.314999999999998      38.855000000000004      61.349999999999994
   181   1      12.269999999999998                  42.945                  59.305
   182   1      14.314999999999998      40.899999999999991                  59.305
   183   1      14.314999999999998                  42.945      57.259999999999991
   184   1      12.269999999999998      40.899999999999991      61.349999999999994
   185   1      12.269999999999998                  42.945      63.395000000000003
   186   1      14.314999999999998      40.899999999999991      63.395000000000003
   187   1      14.314999999999998                  42.945      61.349999999999994
   188   1      14.314999999999998                  42.945      65.439999999999998
   189   1      12.269999999999998      47.034999999999997      55.214999999999996
   190   1      14.314999999999998      44.989999999999995      55.214999999999996
   191   1      14.314999999999998      47.034999999999997      53.170000000000002
   192   1      12.269999999999998      44.989999999999995      57.259999999999991
   193   1      12.269999999999998      47.034999999999997                  59.305
   194   1      14.314999999999998      44.989999999999995                  59.305
   195   1      14.314999999999998      47.034999999999997      57.259999999999991
   196   1      12.269999999999998      44.989999999999995      61.349999999999994
   197   1      12.269999999999998      47.034999999999997      63.395000000000003
   198   1      14.314999999999998      44.989999999999995      63.395000000000003
   199   1      14.314999999999998      47.034999999999997      61.349999999999994
   200   1      12.269999999999998      44.989999999999995      65.439999999999998
   201   1      12.269999999999998      47.034999999999997      67.485000000000014
   202   1      14.314999999999998      44.989999999999995      67.485000000000014
   203   1      14.314999999999998      47.034999999999997      65.439999999999998
   204   1      14.314999999999998      47.034999999999997      69.530000000000001
   205   1      12.269999999999998                  51.125                  51.125
   206   1      14.314999999999998      49.080000000000005                  51.125
   207   1      14.314999999999998                  51.125      49.080000000000005
   208   1      12.269999999999998      49.080000000000005      53.170000000000002
   209   1      12.269999999999998                  51.125      55.214999999999996
   210   1      14.314999999999998      49.080000000000005      55.214999999999996
   211   1      14.314999999999998                  51.125      53.170000000000002
   212   1      12.269999999999998      49.080000000000005      57.259999999999991
   213   1      12.269999999999998                  51.125                  59.305
   214   1      14.314999999999998      49.080000000000005                  59.305
   215   1      14.314999999999998                  51.125      57.259999999999991
   216   1      12.269999999999998      49.080000000000005      61.349999999999994
   217   1      12.269999999999998                  51.125      63.395000000000003
   218   1      14.314999999999998      49.080000000000005      63.395000000000003
   219   1      14.314999999999998                  51.125      61.349999999999994
   220   1      12.269999999999998      49.080000000000005      65.439999999999998
   221   1      12.269999999999998                  51.125      67.485000000000014
   222   1      14.314999999999998      49.080000000000005      67.485000000000014
   223   1      14.314999999999998                  51.125      65.439999999999998
   224   1      12.269999999999998      49.080000000000005      69.530000000000001
   225   1      12.269999999999998                  51.125      71.575000000000003
   226   1      14.314999999999998      49.080000000000005      71.575000000000003
   227   1      14.314999999999998                  51.125      69.530000000000001
   228   1      14.314999999999998                  51.125       73.61999999999999
   229   1      12.269999999999998      55.214999999999996      47.034999999999997
   230   1      14.314999999999998      53.170000000000002      47.034999999999997
   231   1      14.314999999999998      55.214999999999996      44.989999999999995
   232   1      12.269999999999998      53.170000000000002      49.080000000000005
   233   1      12.269999999999998      55.214999999999996                  51.125
   234   1      14.314999999999998      53.170000000000002                  51.125
   235   1      14.314999999999998      55.214999999999996      49.080000000000005
   236   1      12.269999999999998      53.170000000000002      53.170000000000002
   237   1      12.269999999999998      55.214999999999996      55.214999999999996
   238   1      14.314999999999998      53.170000000000002      55.214999999999996
   239   1      14.314999999999998      55.214999999999996      53.170000000000002
   240   1      12.269999999999998      53.170000000000002      57.259999999999991
   241   1      12.269999999999998      55.214999999999996                  59.305
   242   1      14.314999999999998      53.170000000000002                  59.305
   243   1      14.314999999999998      55.214999999999996      57.259999999999991
   244   1      12.269999999999998      53.170000000000002      61.349999999999994
   245   1      12.269999999999998      55.214999999999996      63.395000000000003
   246   1      14.314999999999998      53.170000000000002      63.395000000000003
   247   1      14.314999999999998      55.214999999999996      61.349999999999994
   248   1      12.269999999999998      53.170000000000002      65.439999999999998
   249   1      12.269999999999998      55.214999999999996      67.485000000000014
   250   1      14.314999999999998      53.170000000000002      67.485000000000014
   251   1      14.314999999999998      55.214999999999996      65.439999999999998
   252   1      12.269999999999998      53.170000000000002      69.530000000000001
   253   1      12.269999999999998      55.214999999999996      71.575000000000003
   254   1      14.314999999999998      53.170000000000002      71.575000000000003
   255   1      14.314999999999998      55.214999999999996      69.530000000000001
   256   1      12.269999999999998      53.170000000000002       73.61999999999999
   257   1      12.269999999999998      55.214999999999996      75.664999999999992
   258   1      14.314999999999998      53.170000000000002      75.664999999999992
   259   1      14.314999999999998      55.214999999999996       73.61999999999999
   260   1      14.314999999999998      55.214999999999996      77.710000000000008
   261   1      12.269999999999998                  59.305                  42.945
   262   1      14.314999999999998      57.259999999999991                  42.945
   263   1      14.314999999999998                  59.305      40.899999999999991
   264   1      12.269999999999998      57.259999999999991      44.989999999999995
   265   1      12.269999999999998                  59.305      47.034999999999997
   266   1      14.314999999999998      57.259999999999991      47.034999999999997
   267   1      14.314999999999998                  59.305      44.989999999999995
   268   1      12.269999999999998      57.259999999999991      49.080000000000005
   269   1      12.269999999999998                  59.305                  51.125
   270   1      14.314999999999998      57.259999999999991                  51.125
   271   1      14.314999999999998                  59.305      49.080000000000005
   272   1      12.269999999999998      57.259999999999991      53.170000000000002
   273   1      12.269999999999998                  59.305      55.214999999999996
   274   1      14.314999999999998      57.259999999999991      55.214999999999996
   275   1      14.314999999999998                  59.305      53.170000000000002
   276   1      12.269999999999998      57.259999999999991      57.259999999999991
   277   1      12.269999999999998                  59.305                  59.305
   278   1      14.314999999999998      57.259999999999991                  59.305
   279   1      14.314999999999998                  59.305      57.259999999999991
   280   1      12.269999999999998      57.259999999999991      61.349999999999994
   281   1      12.269999999999998                  59.305      63.395000000000003
   282   1      14.314999999999998      57.259999999999991      63.395000000000003
   283   1      14.314999999999998                  59.305      61.349999999999994
   284   1      12.269999999999998      57.259999999999991      65.439999999999998
   285   1      12.269999999999998                  59.305      67.485000000000014
   286   1      14.314999999999998      57.259999999999991      67.485000000000014
   287   1      14.314999999999998                  59.305      65.439999999999998
   288   1      12.269999999999998      57.259999999999991      69.530000000000001
   289   1      12.269999999999998                  59.305      71.575000000000003
   290   1      14.314999999999998      57.259999999999991      71.575000000000003
   291   1      14.314999999999998                  59.305      69.530000000000001
   292   1      12.269999999999998      57.259999999999991       73.61999999999999
   293   1      12.269999999999998                  59.305      75.664999999999992
   294   1      14.314999999999998      57.259999999999991      75.664999999999992
   295   1      14.314999999999998                  59.305       73.61999999999999
   296   1      12.269999999999998      57.259999999999991      77.710000000000008
   297   1      12.269999999999998                  59.305      79.754999999999995
   298   1      14.314999999999998      57.259999999999991      79.754999999999995
   299   1      14.314999999999998                  59.305      77.710000000000008
   300   1      14.314999999999998                  59.305      81.799999999999997
   301   1      14.314999999999998      61.349999999999994      38.855000000000004
   302   1      12.269999999999998      61.349999999999994      40.899999999999991
   303   1      12.269999999999998      63.395000000000003                  42.945
   304   1      14.314999999999998      61.349999999999994                  42.945
   305   1      14.314999999999998      63.395000000000003      40.899999999999991
   306   1      12.269999999999998      61.349999999999994      44.989999999999995
   307   1      12.269999999999998      63.395000000000003      47.034999999999997
   308   1      14.314999999999998      61.349999999999994      47.034999999999997
   309   1      14.314999999999998      63.395000000000003      44.989999999999995
   310   1      12.269999999999998      61.349999999999994      49.080000000000005
   311   1      12.269999999999998      63.395000000000003                  51.125
   312   1      14.314999999999998      61.349999999999994                  51.125
   313   1      14.314999999999998      63.395000000000003      49.080000000000005
   314   1      12.269999999999998      61.349999999999994      53.170000000000002
   315   1      12.269999999999998      63.395000000000003      55.214999999999996
   316   1      14.314999999999998      61.349999999999994      55.214999999999996
   317   1      14.314999999999998      63.395000000000003      53.170000000000002
   318   1      12.269999999999998      61.349999999999994      57.259999999999991
   319   1      12.269999999999998      63.395000000000003                  59.305
   320   1      14.314999999999998      61.349999999999994                  59.305
   321   1      14.314999999999998      63.395000000000003      57.259999999999991
   322   1      12.269999999999998      61.349999999999994      61.349999999999994
   323   1      12.269999999999998      63.395000000000003      63.395000000000003
   324   1      14.314999999999998      61.349999999999994      63.395000000000003
   325   1      14.314999999999998      63.395000000000003      61.349999999999994
   326   1      12.269999999999998      61.349999999999994      65.439999999999998
   327   1      12.269999999999998      63.395000000000003      67.485000000000014
   328   1      14.314999999999998      61.349999999999994      67.485000000000014
   329   1      14.314999999999998      63.395000000000003      65.439999999999998
   330   1      12.269999999999998      61.349999999999994      69.530000000000001
   331   1      12.269999999999998      63.395000000000003      71.575000000000003
   332   1      14.314999999999998      61.349999999999994      71.575000000000003
   333   1      14.314999999999998      63.395000000000003      69.530000000000001
   334   1      12.269999999999998      61.349999999999994       73.61999999999999
   335   1      12.269999999999998      63.395000000000003      75.664999999999992
   336   1      14.314999999999998      61.349999999999994      75.664999999999992
   337   1      14.314999999999998      63.395000000000003       73.61999999999999
   338   1      12.269999999999998      61.349999999999994      77.710000000000008
   339   1      12.269999999999998      63.395000000000003      79.754999999999995
   340   1      14.314999999999998      61.349999999999994      79.754999999999995
   341   1      14.314999999999998      63.395000000000003      77.710000000000008
   342   1      12.269999999999998      61.349999999999994      81.799999999999997
   343   1      14.314999999999998      61.349999999999994      83.844999999999999
   344   1      14.314999999999998      63.395000000000003      81.799999999999997
   345   1      14.314999999999998      65.439999999999998                  42.945
   346   1      12.269999999999998      65.439999999999998      44.989999999999995
   347   1      12.269999999999998      67.485000000000014      47.034999999999997
   348   1      14.314999999999998      65.439999999999998      47.034999999999997
   349   1      14.314999999999998      67.485000000000014      44.989999999999995
   350   1      12.269999999999998      65.439999999999998      49.080000000000005
   351   1      12.269999999999998      67.485000000000014                  51.125
   352   1      14.314999999999998      65.439999999999998                  51.125
   353   1      14.314999999999998      67.485000000000014      49.080000000000005
   354   1      12.269999999999998      65.439999999999998      53.170000000000002
   355   1      12.269999999999998      67.485000000000014      55.214999999999996
   356   1      14.314999999999998      65.439999999999998      55.214999999999996
   357   1      14.314999999999998      67.485000000000014      53.170000000000002
   358   1      12.269999999999998      65.439999999999998      57.259999999999991