model_files/PtCu/PtCu_30000/PtCu_111/PtCu_111_fcc_28595_temp.data (written by ASE) 

28595 	 atoms 
2  atom types
0.0                     130  xlo xhi
0.0                     130  ylo yhi
0.0                     130  zlo zhi


Atoms 

     1   1      1.9250000000000043      63.525000000000006      65.450000000000003
     2   1      1.9250000000000043      65.450000000000003      63.525000000000006
     3   1                       0      65.450000000000003      65.450000000000003
     4   1      1.9250000000000043      65.450000000000003                  67.375
     5   1      1.9250000000000043                  67.375      65.450000000000003
     6   1      5.7750000000000057      59.675000000000011      65.450000000000003
     7   1      3.8500000000000085      63.525000000000006      63.525000000000006
     8   1      5.7750000000000057      61.600000000000009      63.525000000000006
     9   1      5.7750000000000057      63.525000000000006      61.600000000000009
    10   1      3.8500000000000085      61.600000000000009      65.450000000000003
    11   1      3.8500000000000085      63.525000000000006                  67.375
    12   1      5.7750000000000057      61.600000000000009                  67.375
    13   1      5.7750000000000057      63.525000000000006      65.450000000000003
    14   1      5.7750000000000057      63.525000000000006      69.300000000000026
    15   1      5.7750000000000057      65.450000000000003      59.675000000000011
    16   1      3.8500000000000085      65.450000000000003      61.600000000000009
    17   1      3.8500000000000085                  67.375      63.525000000000006
    18   1      5.7750000000000057      65.450000000000003      63.525000000000006
    19   1      5.7750000000000057                  67.375      61.600000000000009
    20   1      3.8500000000000085      65.450000000000003      65.450000000000003
    21   1      3.8500000000000085                  67.375                  67.375
    22   1      5.7750000000000057      65.450000000000003                  67.375
    23   1      5.7750000000000057                  67.375      65.450000000000003
    24   1      3.8500000000000085      65.450000000000003      69.300000000000026
    25   1      5.7750000000000057      65.450000000000003      71.225000000000023
    26   1      5.7750000000000057                  67.375      69.300000000000026
    27   1      5.7750000000000057      69.300000000000026      63.525000000000006
    28   1      3.8500000000000085      69.300000000000026      65.450000000000003
    29   1      5.7750000000000057      69.300000000000026                  67.375
    30   1      5.7750000000000057      71.225000000000023      65.450000000000003
    31   1      9.6250000000000071      55.825000000000003      65.450000000000003
    32   1      7.7000000000000028      59.675000000000011      63.525000000000006
    33   1      9.6250000000000071      57.750000000000014      63.525000000000006
    34   1      9.6250000000000071      59.675000000000011      61.600000000000009
    35   1      7.7000000000000028      57.750000000000014      65.450000000000003
    36   1      7.7000000000000028      59.675000000000011                  67.375
    37   1      9.6250000000000071      57.750000000000014                  67.375
    38   1      9.6250000000000071      59.675000000000011      65.450000000000003
    39   1      9.6250000000000071      59.675000000000011      69.300000000000026
    40   1      7.7000000000000028      63.525000000000006      59.675000000000011
    41   1      9.6250000000000071      61.600000000000009      59.675000000000011
    42   1      9.6250000000000071      63.525000000000006      57.750000000000014
    43   1      7.7000000000000028      61.600000000000009      61.600000000000009
    44   1      7.7000000000000028      63.525000000000006      63.525000000000006
    45   1      9.6250000000000071      61.600000000000009      63.525000000000006
    46   1      9.6250000000000071      63.525000000000006      61.600000000000009
    47   1      7.7000000000000028      61.600000000000009      65.450000000000003
    48   1      7.7000000000000028      63.525000000000006                  67.375
    49   1      9.6250000000000071      61.600000000000009                  67.375
    50   1      9.6250000000000071      63.525000000000006      65.450000000000003
    51   1      7.7000000000000028      61.600000000000009      69.300000000000026
    52   1      7.7000000000000028      63.525000000000006      71.225000000000023
    53   1      9.6250000000000071      61.600000000000009      71.225000000000023
    54   1      9.6250000000000071      63.525000000000006      69.300000000000026
    55   1      9.6250000000000071      63.525000000000006      73.150000000000006
    56   1      9.6250000000000071      65.450000000000003      55.825000000000003
    57   1      7.7000000000000028      65.450000000000003      57.750000000000014
    58   1      7.7000000000000028                  67.375      59.675000000000011
    59   1      9.6250000000000071      65.450000000000003      59.675000000000011
    60   1      9.6250000000000071                  67.375      57.750000000000014
    61   1      7.7000000000000028      65.450000000000003      61.600000000000009
    62   1      7.7000000000000028                  67.375      63.525000000000006
    63   1      9.6250000000000071      65.450000000000003      63.525000000000006
    64   1      9.6250000000000071                  67.375      61.600000000000009
    65   1      7.7000000000000028      65.450000000000003      65.450000000000003
    66   1      7.7000000000000028                  67.375                  67.375
    67   1      9.6250000000000071      65.450000000000003                  67.375
    68   1      9.6250000000000071                  67.375      65.450000000000003
    69   1      7.7000000000000028      65.450000000000003      69.300000000000026
    70   1      7.7000000000000028                  67.375      71.225000000000023
    71   1      9.6250000000000071      65.450000000000003      71.225000000000023
    72   1      9.6250000000000071                  67.375      69.300000000000026
    73   1      7.7000000000000028      65.450000000000003      73.150000000000006
    74   1      9.6250000000000071      65.450000000000003      75.075000000000003
    75   1      9.6250000000000071                  67.375      73.150000000000006
    76   1      9.6250000000000071      69.300000000000026      59.675000000000011
    77   1      7.7000000000000028      69.300000000000026      61.600000000000009
    78   1      7.7000000000000028      71.225000000000023      63.525000000000006
    79   1      9.6250000000000071      69.300000000000026      63.525000000000006
    80   1      9.6250000000000071      71.225000000000023      61.600000000000009
    81   1      7.7000000000000028      69.300000000000026      65.450000000000003
    82   1      7.7000000000000028      71.225000000000023                  67.375
    83   1      9.6250000000000071      69.300000000000026                  67.375
    84   1      9.6250000000000071      71.225000000000023      65.450000000000003
    85   1      7.7000000000000028      69.300000000000026      69.300000000000026
    86   1      9.6250000000000071      69.300000000000026      71.225000000000023
    87   1      9.6250000000000071      71.225000000000023      69.300000000000026
    88   1      9.6250000000000071      73.150000000000006      63.525000000000006
    89   1      7.7000000000000028      73.150000000000006      65.450000000000003
    90   1      9.6250000000000071      73.150000000000006                  67.375
    91   1      9.6250000000000071      75.075000000000003      65.450000000000003
    92   1      13.475000000000009      51.975000000000009      65.450000000000003
    93   1      11.550000000000004      55.825000000000003      63.525000000000006
    94   1      13.475000000000009      53.900000000000006      63.525000000000006
    95   1      13.475000000000009      55.825000000000003      61.600000000000009
    96   1      11.550000000000004      53.900000000000006      65.450000000000003
    97   1      11.550000000000004      55.825000000000003                  67.375
    98   1      13.475000000000009      53.900000000000006                  67.375
    99   1      13.475000000000009      55.825000000000003      65.450000000000003
   100   1      13.475000000000009      55.825000000000003      69.300000000000026
   101   1      11.550000000000004      59.675000000000011      59.675000000000011
   102   1      13.475000000000009      57.750000000000014      59.675000000000011
   103   1      13.475000000000009      59.675000000000011      57.750000000000014
   104   1      11.550000000000004      57.750000000000014      61.600000000000009
   105   1      11.550000000000004      59.675000000000011      63.525000000000006
   106   1      13.475000000000009      57.750000000000014      63.525000000000006
   107   1      13.475000000000009      59.675000000000011      61.600000000000009
   108   1      11.550000000000004      57.750000000000014      65.450000000000003
   109   1      11.550000000000004      59.675000000000011                  67.375
   110   1      13.475000000000009      57.750000000000014                  67.375
   111   1      13.475000000000009      59.675000000000011      65.450000000000003
   112   1      11.550000000000004      57.750000000000014      69.300000000000026
   113   1      11.550000000000004      59.675000000000011      71.225000000000023
   114   1      13.475000000000009      57.750000000000014      71.225000000000023
   115   1      13.475000000000009      59.675000000000011      69.300000000000026
   116   1      13.475000000000009      59.675000000000011      73.150000000000006
   117   1      11.550000000000004      63.525000000000006      55.825000000000003
   118   1      13.475000000000009      61.600000000000009      55.825000000000003
   119   1      13.475000000000009      63.525000000000006      53.900000000000006
   120   1      11.550000000000004      61.600000000000009      57.750000000000014
   121   1      11.550000000000004      63.525000000000006      59.675000000000011
   122   1      13.475000000000009      61.600000000000009      59.675000000000011
   123   1      13.475000000000009      63.525000000000006      57.750000000000014
   124   1      11.550000000000004      61.600000000000009      61.600000000000009
   125   1      11.550000000000004      63.525000000000006      63.525000000000006
   126   1      13.475000000000009      61.600000000000009      63.525000000000006
   127   1      13.475000000000009      63.525000000000006      61.600000000000009
   128   1      11.550000000000004      61.600000000000009      65.450000000000003
   129   1      11.550000000000004      63.525000000000006                  67.375
   130   1      13.475000000000009      61.600000000000009                  67.375
   131   1      13.475000000000009      63.525000000000006      65.450000000000003
   132   1      11.550000000000004      61.600000000000009      69.300000000000026
   133   1      11.550000000000004      63.525000000000006      71.225000000000023
   134   1      13.475000000000009      61.600000000000009      71.225000000000023
   135   1      13.475000000000009      63.525000000000006      69.300000000000026
   136   1      11.550000000000004      61.600000000000009      73.150000000000006
   137   1      11.550000000000004      63.525000000000006      75.075000000000003
   138   1      13.475000000000009      61.600000000000009      75.075000000000003
   139   1      13.475000000000009      63.525000000000006      73.150000000000006
   140   1      13.475000000000009      63.525000000000006      77.000000000000014
   141   1      13.475000000000009      65.450000000000003      51.975000000000009
   142   1      11.550000000000004      65.450000000000003      53.900000000000006
   143   1      11.550000000000004                  67.375      55.825000000000003
   144   1      13.475000000000009      65.450000000000003      55.825000000000003
   145   1      13.475000000000009                  67.375      53.900000000000006
   146   1      11.550000000000004      65.450000000000003      57.750000000000014
   147   1      11.550000000000004                  67.375      59.675000000000011
   148   1      13.475000000000009      65.450000000000003      59.675000000000011
   149   1      13.475000000000009                  67.375      57.750000000000014
   150   1      11.550000000000004      65.450000000000003      61.600000000000009
   151   1      11.550000000000004                  67.375      63.525000000000006
   152   1      13.475000000000009      65.450000000000003      63.525000000000006
   153   1      13.475000000000009                  67.375      61.600000000000009
   154   1      11.550000000000004      65.450000000000003      65.450000000000003
   155   1      11.550000000000004                  67.375                  67.375
   156   1      13.475000000000009      65.450000000000003                  67.375
   157   1      13.475000000000009                  67.375      65.450000000000003
   158   1      11.550000000000004      65.450000000000003      69.300000000000026
   159   1      11.550000000000004                  67.375      71.225000000000023
   160   1      13.475000000000009      65.450000000000003      71.225000000000023
   161   1      13.475000000000009                  67.375      69.300000000000026
   162   1      11.550000000000004      65.450000000000003      73.150000000000006
   163   1      11.550000000000004                  67.375      75.075000000000003
   164   1      13.475000000000009      65.450000000000003      75.075000000000003
   165   1      13.475000000000009                  67.375      73.150000000000006
   166   1      11.550000000000004      65.450000000000003      77.000000000000014
   167   1      13.475000000000009      65.450000000000003      78.925000000000011
   168   1      13.475000000000009                  67.375      77.000000000000014
   169   1      13.475000000000009      69.300000000000026      55.825000000000003
   170   1      11.550000000000004      69.300000000000026      57.750000000000014
   171   1      11.550000000000004      71.225000000000023      59.675000000000011
   172   1      13.475000000000009      69.300000000000026      59.675000000000011
   173   1      13.475000000000009      71.225000000000023      57.750000000000014
   174   1      11.550000000000004      69.300000000000026      61.600000000000009
   175   1      11.550000000000004      71.225000000000023      63.525000000000006
   176   1      13.475000000000009      69.300000000000026      63.525000000000006
   177   1      13.475000000000009      71.225000000000023      61.600000000000009
   178   1      11.550000000000004      69.300000000000026      65.450000000000003
   179   1      11.550000000000004      71.225000000000023                  67.375
   180   1      13.475000000000009      69.300000000000026                  67.375
   181   1      13.475000000000009      71.225000000000023      65.450000000000003
   182   1      11.550000000000004      69.300000000000026      69.300000000000026
   183   1      11.550000000000004      71.225000000000023      71.225000000000023
   184   1      13.475000000000009      69.300000000000026      71.225000000000023
   185   1      13.475000000000009      71.225000000000023      69.300000000000026
   186   1      11.550000000000004      69.300000000000026      73.150000000000006
   187   1      13.475000000000009      69.300000000000026      75.075000000000003
   188   1      13.475000000000009      71.225000000000023      73.150000000000006
   189   1      13.475000000000009      73.150000000000006      59.675000000000011
   190   1      11.550000000000004      73.150000000000006      61.600000000000009
   191   1      11.550000000000004      75.075000000000003      63.525000000000006
   192   1      13.475000000000009      73.150000000000006      63.525000000000006
   193   1      13.475000000000009      75.075000000000003      61.600000000000009
   194   1      11.550000000000004      73.150000000000006      65.450000000000003
   195   1      11.550000000000004      75.075000000000003                  67.375
   196   1      13.475000000000009      73.150000000000006                  67.375
   197   1      13.475000000000009      75.075000000000003      65.450000000000003
   198   1      11.550000000000004      73.150000000000006      69.300000000000026
   199   1      13.475000000000009      73.150000000000006      71.225000000000023
   200   1      13.475000000000009      75.075000000000003      69.300000000000026
   201   1      13.475000000000009      77.000000000000014      63.525000000000006
   202   1      11.550000000000004      77.000000000000014      65.450000000000003
   203   1      13.475000000000009      77.000000000000014                  67.375
   204   1      13.475000000000009      78.925000000000011      65.450000000000003
   205   1      17.325000000000006      48.125000000000007      65.450000000000003
   206   1      15.400000000000006      51.975000000000009      63.525000000000006
   207   1      17.325000000000006      50.050000000000011      63.525000000000006
   208   1      17.325000000000006      51.975000000000009      61.600000000000009
   209   1      15.400000000000006      50.050000000000011      65.450000000000003
   210   1      15.400000000000006      51.975000000000009                  67.375
   211   1      17.325000000000006      50.050000000000011                  67.375
   212   1      17.325000000000006      51.975000000000009      65.450000000000003
   213   1      17.325000000000006      51.975000000000009      69.300000000000026
   214   1      15.400000000000006      55.825000000000003      59.675000000000011
   215   1      17.325000000000006      53.900000000000006      59.675000000000011
   216   1      17.325000000000006      55.825000000000003      57.750000000000014
   217   1      15.400000000000006      53.900000000000006      61.600000000000009
   218   1      15.400000000000006      55.825000000000003      63.525000000000006
   219   1      17.325000000000006      53.900000000000006      63.525000000000006
   220   1      17.325000000000006      55.825000000000003      61.600000000000009
   221   1      15.400000000000006      53.900000000000006      65.450000000000003
   222   1      15.400000000000006      55.825000000000003                  67.375
   223   1      17.325000000000006      53.900000000000006                  67.375
   224   1      17.325000000000006      55.825000000000003      65.450000000000003
   225   1      15.400000000000006      53.900000000000006      69.300000000000026
   226   1      15.400000000000006      55.825000000000003      71.225000000000023
   227   1      17.325000000000006      53.900000000000006      71.225000000000023
   228   1      17.325000000000006      55.825000000000003      69.300000000000026
   229   1      17.325000000000006      55.825000000000003      73.150000000000006
   230   1      15.400000000000006      59.675000000000011      55.825000000000003
   231   1      17.325000000000006      57.750000000000014      55.825000000000003
   232   1      17.325000000000006      59.675000000000011      53.900000000000006
   233   1      15.400000000000006      57.750000000000014      57.750000000000014
   234   1      15.400000000000006      59.675000000000011      59.675000000000011
   235   1      17.325000000000006      57.750000000000014      59.675000000000011
   236   1      17.325000000000006      59.675000000000011      57.750000000000014
   237   1      15.400000000000006      57.750000000000014      61.600000000000009
   238   1      15.400000000000006      59.675000000000011      63.525000000000006
   239   1      17.325000000000006      57.750000000000014      63.525000000000006
   240   1      17.325000000000006      59.675000000000011      61.600000000000009
   241   1      15.400000000000006      57.750000000000014      65.450000000000003
   242   1      15.400000000000006      59.675000000000011                  67.375
   243   1      17.325000000000006      57.750000000000014                  67.375
   244   1      17.325000000000006      59.675000000000011      65.450000000000003
   245   1      15.400000000000006      57.750000000000014      69.300000000000026
   246   1      15.400000000000006      59.675000000000011      71.225000000000023
   247   1      17.325000000000006      57.750000000000014      71.225000000000023
   248   1      17.325000000000006      59.675000000000011      69.300000000000026
   249   1      15.400000000000006      57.750000000000014      73.150000000000006
   250   1      15.400000000000006      59.675000000000011      75.075000000000003
   251   1      17.325000000000006      57.750000000000014      75.075000000000003
   252   1      17.325000000000006      59.675000000000011      73.150000000000006
   253   1      17.325000000000006      59.675000000000011      77.000000000000014
   254   1      15.400000000000006      63.525000000000006      51.975000000000009
   255   1      17.325000000000006      61.600000000000009      51.975000000000009
   256   1      17.325000000000006      63.525000000000006      50.050000000000011
   257   1      15.400000000000006      61.600000000000009      53.900000000000006
   258   1      15.400000000000006      63.525000000000006      55.825000000000003
   259   1      17.325000000000006      61.600000000000009      55.825000000000003
   260   1      17.325000000000006      63.525000000000006      53.900000000000006
   261   1      15.400000000000006      61.600000000000009      57.750000000000014
   262   1      15.400000000000006      63.525000000000006      59.675000000000011
   263   1      17.325000000000006      61.600000000000009      59.675000000000011
   264   1      17.325000000000006      63.525000000000006      57.750000000000014
   265   1      15.400000000000006      61.600000000000009      61.600000000000009
   266   1      15.400000000000006      63.525000000000006      63.525000000000006
   267   1      17.325000000000006      61.600000000000009      63.525000000000006
   268   1      17.325000000000006      63.525000000000006      61.600000000000009
   269   1      15.400000000000006      61.600000000000009      65.450000000000003
   270   1      15.400000000000006      63.525000000000006                  67.375
   271   1      17.325000000000006      61.600000000000009                  67.375
   272   1      17.325000000000006      63.525000000000006      65.450000000000003
   273   1      15.400000000000006      61.600000000000009      69.300000000000026
   274   1      15.400000000000006      63.525000000000006      71.225000000000023
   275   1      17.325000000000006      61.600000000000009      71.225000000000023
   276   1      17.325000000000006      63.525000000000006      69.300000000000026
   277   1      15.400000000000006      61.600000000000009      73.150000000000006
   278   1      15.400000000000006      63.525000000000006      75.075000000000003
   279   1      17.325000000000006      61.600000000000009      75.075000000000003
   280   1      17.325000000000006      63.525000000000006      73.150000000000006
   281   1      15.400000000000006      61.600000000000009      77.000000000000014
   282   1      15.400000000000006      63.525000000000006      78.925000000000011
   283   1      17.325000000000006      61.600000000000009      78.925000000000011
   284   1      17.325000000000006      63.525000000000006      77.000000000000014
   285   1      17.325000000000006      63.525000000000006      80.850000000000009
   286   1      17.325000000000006      65.450000000000003      48.125000000000007
   287   1      15.400000000000006      65.450000000000003      50.050000000000011
   288   1      15.400000000000006                  67.375      51.975000000000009
   289   1      17.325000000000006      65.450000000000003      51.975000000000009
   290   1      17.325000000000006                  67.375      50.050000000000011
   291   1      15.400000000000006      65.450000000000003      53.900000000000006
   292   1      15.400000000000006                  67.375      55.825000000000003
   293   1      17.325000000000006      65.450000000000003      55.825000000000003
   294   1      17.325000000000006                  67.375      53.900000000000006
   295   1      15.400000000000006      65.450000000000003      57.750000000000014
   296   1      15.400000000000006                  67.375      59.675000000000011
   297   1      17.325000000000006      65.450000000000003      59.675000000000011
   298   1      17.325000000000006                  67.375      57.750000000000014
   299   1      15.400000000000006      65.450000000000003      61.600000000000009
   300   1      15.400000000000006                  67.375      63.525000000000006
   301   1      17.325000000000006      65.450000000000003      63.525000000000006
   302   1      17.325000000000006                  67.375      61.600000000000009
   303   1      15.400000000000006      65.450000000000003      65.450000000000003
   304   1      15.400000000000006                  67.375                  67.375
   305   1      17.325000000000006      65.450000000000003                  67.375
   306   1      17.325000000000006                  67.375      65.450000000000003
   307   1      15.400000000000006      65.450000000000003      69.300000000000026
   308   1      15.400000000000006                  67.375      71.225000000000023
   309   1      17.325000000000006      65.450000000000003      71.225000000000023
   310   1      17.325000000000006                  67.375      69.300000000000026
   311   1      15.400000000000006      65.450000000000003      73.150000000000006
   312   1      15.400000000000006                  67.375      75.075000000000003
   313   1      17.325000000000006      65.450000000000003      75.075000000000003
   314   1      17.325000000000006                  67.375      73.150000000000006
   315   1      15.400000000000006      65.450000000000003      77.000000000000014
   316   1      15.400000000000006                  67.375      78.925000000000011
   317   1      17.325000000000006      65.450000000000003      78.925000000000011
   318   1      17.325000000000006                  67.375      77.000000000000014
   319   1      15.400000000000006      65.450000000000003      80.850000000000009
   320   1      17.325000000000006      65.450000000000003      82.775000000000006
   321   1      17.325000000000006                  67.375      80.850000000000009
   322   1      17.325000000000006      69.300000000000026      51.975000000000009
   323   1      15.400000000000006      69.300000000000026      53.900000000000006
   324   1      15.400000000000006      71.225000000000023      55.825000000000003
   325   1      17.325000000000006      69.300000000000026      55.825000000000003
   326   1      17.325000000000006      71.225000000000023      53.900000000000006
   327   1      15.400000000000006      69.300000000000026      57.750000000000014
   328   1      15.400000000000006      71.225000000000023      59.675000000000011
   329   1      17.325000000000006      69.300000000000026      59.675000000000011
   330   1      17.325000000000006      71.225000000000023      57.750000000000014
   331   1      15.400000000000006      69.300000000000026      61.600000000000009
   332   1      15.400000000000006      71.225000000000023      63.525000000000006
   333   1      17.325000000000006      69.300000000000026      63.525000000000006
   334   1      17.325000000000006      71.225000000000023      61.600000000000009
   335   1      15.400000000000006      69.300000000000026      65.450000000000003
   336   1      15.400000000000006      71.225000000000023                  67.375
   337   1      17.325000000000006      69.300000000000026                  67.375
   338   1      17.325000000000006      71.225000000000023      65.450000000000003
   339   1      15.400000000000006      69.300000000000026      69.300000000000026
   340   1      15.400000000000006      71.225000000000023      71.225000000000023
   341   1      17.325000000000006      69.300000000000026      71.225000000000023
   342   1      17.325000000000006      71.225000000000023      69.300000000000026
   343   1      15.400000000000006      69.300000000000026      73.150000000000006
   344   1      15.400000000000006      71.225000000000023      75.075000000000003
   345   1      17.325000000000006      69.300000000000026      75.075000000000003
   346   1      17.325000000000006      71.225000000000023      73.150000000000006
   347   1      15.400000000000006      69.300000000000026      77.000000000000014
   348   1      17.325000000000006      69.300000000000026      78.925000000000011
   349   1      17.325000000000006      71.225000000000023      77.000000000000014
   350   1      17.325000000000006      73.150000000000006      55.825000000000003
   351   1      15.400000000000006      73.150000000000006      57.750000000000014
   352   1      15.400000000000006      75.075000000000003      59.675000000000011
   353   1      17.325000000000006      73.150000000000006      59.675000000000011
   354   1      17.325000000000006      75.075000000000003      57.750000000000014
   355   1      15.400000000000006      73.150000000000006      61.600000000000009
   356   1      15.400000000000006      75.075000000000003      63.525000000000006
   357   1      17.325000000000006      73.150000000000006      63.525000000000006
   358   1      17.325000000000006      75.075000000000003      61.600000000000009