model_files/Co/Co_3000/Co_431/data.Co_431_hcp_3073 (written by ASE) 

3073 	 atoms 
1  atom types
0.0                      32  xlo xhi
0.0                      32  ylo yhi
0.0                      32  zlo zhi


Atoms 

     1   1      31.999999999999996      15.059999999999995      16.314999999999998
     2   1      31.999999999999996      16.314999999999998      15.059999999999995
     3   1      31.999999999999996      16.314999999999998      17.569999999999997
     4   1      31.999999999999996      17.569999999999997      16.314999999999998
     5   1       2.509999999999998      12.549999999999997      13.804999999999996
     6   1       2.509999999999998      12.549999999999997      16.314999999999998
     7   1       2.509999999999998      12.549999999999997      18.824999999999996
     8   1       2.509999999999998      13.804999999999996      12.549999999999997
     9   1      1.2549999999999972      15.059999999999995      15.059999999999995
    10   1       2.509999999999998      13.804999999999996      15.059999999999995
    11   1       2.509999999999998      15.059999999999995      13.804999999999996
    12   1      1.2549999999999972      13.804999999999996      16.314999999999998
    13   1      1.2549999999999972      15.059999999999995      17.569999999999997
    14   1       2.509999999999998      13.804999999999996      17.569999999999997
    15   1       2.509999999999998      15.059999999999995      16.314999999999998
    16   1       2.509999999999998      13.804999999999996      20.079999999999995
    17   1       2.509999999999998      15.059999999999995      18.824999999999996
    18   1       2.509999999999998      16.314999999999998      12.549999999999997
    19   1      1.2549999999999972      16.314999999999998      13.804999999999996
    20   1      1.2549999999999972      17.569999999999997      15.059999999999995
    21   1       2.509999999999998      16.314999999999998      15.059999999999995
    22   1       2.509999999999998      17.569999999999997      13.804999999999996
    23   1      1.2549999999999972      16.314999999999998      16.314999999999998
    24   1      1.2549999999999972      17.569999999999997      17.569999999999997
    25   1       2.509999999999998      16.314999999999998      17.569999999999997
    26   1       2.509999999999998      17.569999999999997      16.314999999999998
    27   1      1.2549999999999972      16.314999999999998      18.824999999999996
    28   1       2.509999999999998      16.314999999999998      20.079999999999995
    29   1       2.509999999999998      17.569999999999997      18.824999999999996
    30   1       2.509999999999998      18.824999999999996      12.549999999999997
    31   1       2.509999999999998      18.824999999999996      15.059999999999995
    32   1       2.509999999999998      20.079999999999995      13.804999999999996
    33   1      1.2549999999999972      18.824999999999996      16.314999999999998
    34   1       2.509999999999998      18.824999999999996      17.569999999999997
    35   1       2.509999999999998      20.079999999999995      16.314999999999998
    36   1       2.509999999999998      18.824999999999996      20.079999999999995
    37   1       2.509999999999998      20.079999999999995      18.824999999999996
    38   1       5.019999999999996      10.039999999999996      11.294999999999996
    39   1       5.019999999999996      8.7849999999999966      15.059999999999995
    40   1       5.019999999999996      10.039999999999996      13.804999999999996
    41   1       5.019999999999996      8.7849999999999966      17.569999999999997
    42   1       5.019999999999996      10.039999999999996      16.314999999999998
    43   1       5.019999999999996      10.039999999999996      18.824999999999996
    44   1       5.019999999999996      10.039999999999996      21.334999999999994
    45   1       5.019999999999996      11.294999999999996      10.039999999999996
    46   1       3.764999999999997      12.549999999999997      12.549999999999997
    47   1       5.019999999999996      11.294999999999996      12.549999999999997
    48   1       5.019999999999996      12.549999999999997      11.294999999999996
    49   1       3.764999999999997      11.294999999999996      13.804999999999996
    50   1       3.764999999999997      12.549999999999997      15.059999999999995
    51   1       5.019999999999996      11.294999999999996      15.059999999999995
    52   1       5.019999999999996      12.549999999999997      13.804999999999996
    53   1       3.764999999999997      11.294999999999996      16.314999999999998
    54   1       3.764999999999997      12.549999999999997      17.569999999999997
    55   1       5.019999999999996      11.294999999999996      17.569999999999997
    56   1       5.019999999999996      12.549999999999997      16.314999999999998
    57   1       3.764999999999997      11.294999999999996      18.824999999999996
    58   1       3.764999999999997      12.549999999999997      20.079999999999995
    59   1       5.019999999999996      11.294999999999996      20.079999999999995
    60   1       5.019999999999996      12.549999999999997      18.824999999999996
    61   1       5.019999999999996      11.294999999999996      22.589999999999993
    62   1       5.019999999999996      12.549999999999997      21.334999999999994
    63   1       5.019999999999996      13.804999999999996      10.039999999999996
    64   1       5.019999999999996      15.059999999999995      8.7849999999999966
    65   1       3.764999999999997      13.804999999999996      11.294999999999996
    66   1       3.764999999999997      15.059999999999995      12.549999999999997
    67   1       5.019999999999996      13.804999999999996      12.549999999999997
    68   1       5.019999999999996      15.059999999999995      11.294999999999996
    69   1       3.764999999999997      13.804999999999996      13.804999999999996
    70   1       3.764999999999997      15.059999999999995      15.059999999999995
    71   1       5.019999999999996      13.804999999999996      15.059999999999995
    72   1       5.019999999999996      15.059999999999995      13.804999999999996
    73   1       3.764999999999997      13.804999999999996      16.314999999999998
    74   1       3.764999999999997      15.059999999999995      17.569999999999997
    75   1       5.019999999999996      13.804999999999996      17.569999999999997
    76   1       5.019999999999996      15.059999999999995      16.314999999999998
    77   1       3.764999999999997      13.804999999999996      18.824999999999996
    78   1       3.764999999999997      15.059999999999995      20.079999999999995
    79   1       5.019999999999996      13.804999999999996      20.079999999999995
    80   1       5.019999999999996      15.059999999999995      18.824999999999996
    81   1       3.764999999999997      13.804999999999996      21.334999999999994
    82   1       5.019999999999996      13.804999999999996      22.589999999999993
    83   1       5.019999999999996      15.059999999999995      21.334999999999994
    84   1       5.019999999999996      15.059999999999995      23.844999999999995
    85   1       5.019999999999996      16.314999999999998      10.039999999999996
    86   1       5.019999999999996      17.569999999999997      8.7849999999999966
    87   1       3.764999999999997      16.314999999999998      11.294999999999996
    88   1       3.764999999999997      17.569999999999997      12.549999999999997
    89   1       5.019999999999996      16.314999999999998      12.549999999999997
    90   1       5.019999999999996      17.569999999999997      11.294999999999996
    91   1       3.764999999999997      16.314999999999998      13.804999999999996
    92   1       3.764999999999997      17.569999999999997      15.059999999999995
    93   1       5.019999999999996      16.314999999999998      15.059999999999995
    94   1       5.019999999999996      17.569999999999997      13.804999999999996
    95   1       3.764999999999997      16.314999999999998      16.314999999999998
    96   1       3.764999999999997      17.569999999999997      17.569999999999997
    97   1       5.019999999999996      16.314999999999998      17.569999999999997
    98   1       5.019999999999996      17.569999999999997      16.314999999999998
    99   1       3.764999999999997      16.314999999999998      18.824999999999996
   100   1       3.764999999999997      17.569999999999997      20.079999999999995
   101   1       5.019999999999996      16.314999999999998      20.079999999999995
   102   1       5.019999999999996      17.569999999999997      18.824999999999996
   103   1       3.764999999999997      16.314999999999998      21.334999999999994
   104   1       5.019999999999996      16.314999999999998      22.589999999999993
   105   1       5.019999999999996      17.569999999999997      21.334999999999994
   106   1       5.019999999999996      17.569999999999997      23.844999999999995
   107   1       5.019999999999996      18.824999999999996      10.039999999999996
   108   1       3.764999999999997      18.824999999999996      11.294999999999996
   109   1       3.764999999999997      20.079999999999995      12.549999999999997
   110   1       5.019999999999996      18.824999999999996      12.549999999999997
   111   1       5.019999999999996      20.079999999999995      11.294999999999996
   112   1       3.764999999999997      18.824999999999996      13.804999999999996
   113   1       3.764999999999997      20.079999999999995      15.059999999999995
   114   1       5.019999999999996      18.824999999999996      15.059999999999995
   115   1       5.019999999999996      20.079999999999995      13.804999999999996
   116   1       3.764999999999997      18.824999999999996      16.314999999999998
   117   1       3.764999999999997      20.079999999999995      17.569999999999997
   118   1       5.019999999999996      18.824999999999996      17.569999999999997
   119   1       5.019999999999996      20.079999999999995      16.314999999999998
   120   1       3.764999999999997      18.824999999999996      18.824999999999996
   121   1       3.764999999999997      20.079999999999995      20.079999999999995
   122   1       5.019999999999996      18.824999999999996      20.079999999999995
   123   1       5.019999999999996      20.079999999999995      18.824999999999996
   124   1       3.764999999999997      18.824999999999996      21.334999999999994
   125   1       5.019999999999996      18.824999999999996      22.589999999999993
   126   1       5.019999999999996      20.079999999999995      21.334999999999994
   127   1       5.019999999999996      21.334999999999994      10.039999999999996
   128   1       5.019999999999996      21.334999999999994      12.549999999999997
   129   1       5.019999999999996      22.589999999999993      11.294999999999996
   130   1       3.764999999999997      21.334999999999994      13.804999999999996
   131   1       5.019999999999996      21.334999999999994      15.059999999999995
   132   1       5.019999999999996      22.589999999999993      13.804999999999996
   133   1       3.764999999999997      21.334999999999994      16.314999999999998
   134   1       5.019999999999996      21.334999999999994      17.569999999999997
   135   1       5.019999999999996      22.589999999999993      16.314999999999998
   136   1       3.764999999999997      21.334999999999994      18.824999999999996
   137   1       5.019999999999996      21.334999999999994      20.079999999999995
   138   1       5.019999999999996      22.589999999999993      18.824999999999996
   139   1       5.019999999999996      21.334999999999994      22.589999999999993
   140   1       5.019999999999996      22.589999999999993      21.334999999999994
   141   1       5.019999999999996      23.844999999999995      15.059999999999995
   142   1       5.019999999999996      23.844999999999995      17.569999999999997
   143   1      7.5299999999999976      7.5299999999999976      8.7849999999999966
   144   1      7.5299999999999976      7.5299999999999976      11.294999999999996
   145   1      6.2749999999999968      7.5299999999999976      15.059999999999995
   146   1      7.5299999999999976      6.2749999999999968      15.059999999999995
   147   1      7.5299999999999976      7.5299999999999976      13.804999999999996
   148   1      6.2749999999999968      7.5299999999999976      17.569999999999997
   149   1      7.5299999999999976      6.2749999999999968      17.569999999999997
   150   1      7.5299999999999976      7.5299999999999976      16.314999999999998
   151   1      7.5299999999999976      7.5299999999999976      18.824999999999996
   152   1      7.5299999999999976      7.5299999999999976      21.334999999999994
   153   1      7.5299999999999976      7.5299999999999976      23.844999999999995
   154   1      7.5299999999999976      8.7849999999999966      7.5299999999999976
   155   1      6.2749999999999968      10.039999999999996      10.039999999999996
   156   1      7.5299999999999976      8.7849999999999966      10.039999999999996
   157   1      7.5299999999999976      10.039999999999996      8.7849999999999966
   158   1      6.2749999999999968      8.7849999999999966      11.294999999999996
   159   1      6.2749999999999968      10.039999999999996      12.549999999999997
   160   1      7.5299999999999976      8.7849999999999966      12.549999999999997
   161   1      7.5299999999999976      10.039999999999996      11.294999999999996
   162   1      6.2749999999999968      8.7849999999999966      13.804999999999996
   163   1      6.2749999999999968      10.039999999999996      15.059999999999995
   164   1      7.5299999999999976      8.7849999999999966      15.059999999999995
   165   1      7.5299999999999976      10.039999999999996      13.804999999999996
   166   1      6.2749999999999968      8.7849999999999966      16.314999999999998
   167   1      6.2749999999999968      10.039999999999996      17.569999999999997
   168   1      7.5299999999999976      8.7849999999999966      17.569999999999997
   169   1      7.5299999999999976      10.039999999999996      16.314999999999998
   170   1      6.2749999999999968      8.7849999999999966      18.824999999999996
   171   1      6.2749999999999968      10.039999999999996      20.079999999999995
   172   1      7.5299999999999976      8.7849999999999966      20.079999999999995
   173   1      7.5299999999999976      10.039999999999996      18.824999999999996
   174   1      6.2749999999999968      8.7849999999999966      21.334999999999994
   175   1      6.2749999999999968      10.039999999999996      22.589999999999993
   176   1      7.5299999999999976      8.7849999999999966      22.589999999999993
   177   1      7.5299999999999976      10.039999999999996      21.334999999999994
   178   1      7.5299999999999976      8.7849999999999966      25.099999999999994
   179   1      7.5299999999999976      10.039999999999996      23.844999999999995
   180   1      7.5299999999999976      11.294999999999996      7.5299999999999976
   181   1      6.2749999999999968      11.294999999999996      8.7849999999999966
   182   1      6.2749999999999968      12.549999999999997      10.039999999999996
   183   1      7.5299999999999976      11.294999999999996      10.039999999999996
   184   1      7.5299999999999976      12.549999999999997      8.7849999999999966
   185   1      6.2749999999999968      11.294999999999996      11.294999999999996
   186   1      6.2749999999999968      12.549999999999997      12.549999999999997
   187   1      7.5299999999999976      11.294999999999996      12.549999999999997
   188   1      7.5299999999999976      12.549999999999997      11.294999999999996
   189   1      6.2749999999999968      11.294999999999996      13.804999999999996
   190   1      6.2749999999999968      12.549999999999997      15.059999999999995
   191   1      7.5299999999999976      11.294999999999996      15.059999999999995
   192   1      7.5299999999999976      12.549999999999997      13.804999999999996
   193   1      6.2749999999999968      11.294999999999996      16.314999999999998
   194   1      6.2749999999999968      12.549999999999997      17.569999999999997
   195   1      7.5299999999999976      11.294999999999996      17.569999999999997
   196   1      7.5299999999999976      12.549999999999997      16.314999999999998
   197   1      6.2749999999999968      11.294999999999996      18.824999999999996
   198   1      6.2749999999999968      12.549999999999997      20.079999999999995
   199   1      7.5299999999999976      11.294999999999996      20.079999999999995
   200   1      7.5299999999999976      12.549999999999997      18.824999999999996
   201   1      6.2749999999999968      11.294999999999996      21.334999999999994
   202   1      6.2749999999999968      12.549999999999997      22.589999999999993
   203   1      7.5299999999999976      11.294999999999996      22.589999999999993
   204   1      7.5299999999999976      12.549999999999997      21.334999999999994
   205   1      6.2749999999999968      11.294999999999996      23.844999999999995
   206   1      7.5299999999999976      11.294999999999996      25.099999999999994
   207   1      7.5299999999999976      12.549999999999997      23.844999999999995
   208   1      6.2749999999999968      15.059999999999995      7.5299999999999976
   209   1      7.5299999999999976      13.804999999999996      7.5299999999999976
   210   1      7.5299999999999976      15.059999999999995      6.2749999999999968
   211   1      6.2749999999999968      13.804999999999996      8.7849999999999966
   212   1      6.2749999999999968      15.059999999999995      10.039999999999996
   213   1      7.5299999999999976      13.804999999999996      10.039999999999996
   214   1      7.5299999999999976      15.059999999999995      8.7849999999999966
   215   1      6.2749999999999968      13.804999999999996      11.294999999999996
   216   1      6.2749999999999968      15.059999999999995      12.549999999999997
   217   1      7.5299999999999976      13.804999999999996      12.549999999999997
   218   1      7.5299999999999976      15.059999999999995      11.294999999999996
   219   1      6.2749999999999968      13.804999999999996      13.804999999999996
   220   1      6.2749999999999968      15.059999999999995      15.059999999999995
   221   1      7.5299999999999976      13.804999999999996      15.059999999999995
   222   1      7.5299999999999976      15.059999999999995      13.804999999999996
   223   1      6.2749999999999968      13.804999999999996      16.314999999999998
   224   1      6.2749999999999968      15.059999999999995      17.569999999999997
   225   1      7.5299999999999976      13.804999999999996      17.569999999999997
   226   1      7.5299999999999976      15.059999999999995      16.314999999999998
   227   1      6.2749999999999968      13.804999999999996      18.824999999999996
   228   1      6.2749999999999968      15.059999999999995      20.079999999999995
   229   1      7.5299999999999976      13.804999999999996      20.079999999999995
   230   1      7.5299999999999976      15.059999999999995      18.824999999999996
   231   1      6.2749999999999968      13.804999999999996      21.334999999999994
   232   1      6.2749999999999968      15.059999999999995      22.589999999999993
   233   1      7.5299999999999976      13.804999999999996      22.589999999999993
   234   1      7.5299999999999976      15.059999999999995      21.334999999999994
   235   1      6.2749999999999968      13.804999999999996      23.844999999999995
   236   1      6.2749999999999968      15.059999999999995      25.099999999999994
   237   1      7.5299999999999976      13.804999999999996      25.099999999999994
   238   1      7.5299999999999976      15.059999999999995      23.844999999999995
   239   1      7.5299999999999976      15.059999999999995      26.354999999999997
   240   1      6.2749999999999968      17.569999999999997      7.5299999999999976
   241   1      7.5299999999999976      16.314999999999998      7.5299999999999976
   242   1      7.5299999999999976      17.569999999999997      6.2749999999999968
   243   1      6.2749999999999968      16.314999999999998      8.7849999999999966
   244   1      6.2749999999999968      17.569999999999997      10.039999999999996
   245   1      7.5299999999999976      16.314999999999998      10.039999999999996
   246   1      7.5299999999999976      17.569999999999997      8.7849999999999966
   247   1      6.2749999999999968      16.314999999999998      11.294999999999996
   248   1      6.2749999999999968      17.569999999999997      12.549999999999997
   249   1      7.5299999999999976      16.314999999999998      12.549999999999997
   250   1      7.5299999999999976      17.569999999999997      11.294999999999996
   251   1      6.2749999999999968      16.314999999999998      13.804999999999996
   252   1      6.2749999999999968      17.569999999999997      15.059999999999995
   253   1      7.5299999999999976      16.314999999999998      15.059999999999995
   254   1      7.5299999999999976      17.569999999999997      13.804999999999996
   255   1      6.2749999999999968      16.314999999999998      16.314999999999998
   256   1      6.2749999999999968      17.569999999999997      17.569999999999997
   257   1      7.5299999999999976      16.314999999999998      17.569999999999997
   258   1      7.5299999999999976      17.569999999999997      16.314999999999998
   259   1      6.2749999999999968      16.314999999999998      18.824999999999996
   260   1      6.2749999999999968      17.569999999999997      20.079999999999995
   261   1      7.5299999999999976      16.314999999999998      20.079999999999995
   262   1      7.5299999999999976      17.569999999999997      18.824999999999996
   263   1      6.2749999999999968      16.314999999999998      21.334999999999994
   264   1      6.2749999999999968      17.569999999999997      22.589999999999993
   265   1      7.5299999999999976      16.314999999999998      22.589999999999993
   266   1      7.5299999999999976      17.569999999999997      21.334999999999994
   267   1      6.2749999999999968      16.314999999999998      23.844999999999995
   268   1      6.2749999999999968      17.569999999999997      25.099999999999994
   269   1      7.5299999999999976      16.314999999999998      25.099999999999994
   270   1      7.5299999999999976      17.569999999999997      23.844999999999995
   271   1      7.5299999999999976      17.569999999999997      26.354999999999997
   272   1      7.5299999999999976      18.824999999999996      7.5299999999999976
   273   1      6.2749999999999968      18.824999999999996      8.7849999999999966
   274   1      6.2749999999999968      20.079999999999995      10.039999999999996
   275   1      7.5299999999999976      18.824999999999996      10.039999999999996
   276   1      7.5299999999999976      20.079999999999995      8.7849999999999966
   277   1      6.2749999999999968      18.824999999999996      11.294999999999996
   278   1      6.2749999999999968      20.079999999999995      12.549999999999997
   279   1      7.5299999999999976      18.824999999999996      12.549999999999997
   280   1      7.5299999999999976      20.079999999999995      11.294999999999996
   281   1      6.2749999999999968      18.824999999999996      13.804999999999996
   282   1      6.2749999999999968      20.079999999999995      15.059999999999995
   283   1      7.5299999999999976      18.824999999999996      15.059999999999995
   284   1      7.5299999999999976      20.079999999999995      13.804999999999996
   285   1      6.2749999999999968      18.824999999999996      16.314999999999998
   286   1      6.2749999999999968      20.079999999999995      17.569999999999997
   287   1      7.5299999999999976      18.824999999999996      17.569999999999997
   288   1      7.5299999999999976      20.079999999999995      16.314999999999998
   289   1      6.2749999999999968      18.824999999999996      18.824999999999996
   290   1      6.2749999999999968      20.079999999999995      20.079999999999995
   291   1      7.5299999999999976      18.824999999999996      20.079999999999995
   292   1      7.5299999999999976      20.079999999999995      18.824999999999996
   293   1      6.2749999999999968      18.824999999999996      21.334999999999994
   294   1      6.2749999999999968      20.079999999999995      22.589999999999993
   295   1      7.5299999999999976      18.824999999999996      22.589999999999993
   296   1      7.5299999999999976      20.079999999999995      21.334999999999994
   297   1      6.2749999999999968      18.824999999999996      23.844999999999995
   298   1      7.5299999999999976      18.824999999999996      25.099999999999994
   299   1      7.5299999999999976      20.079999999999995      23.844999999999995
   300   1      7.5299999999999976      21.334999999999994      7.5299999999999976
   301   1      6.2749999999999968      21.334999999999994      8.7849999999999966
   302   1      6.2749999999999968      22.589999999999993      10.039999999999996
   303   1      7.5299999999999976      21.334999999999994      10.039999999999996
   304   1      7.5299999999999976      22.589999999999993      8.7849999999999966
   305   1      6.2749999999999968      21.334999999999994      11.294999999999996
   306   1      6.2749999999999968      22.589999999999993      12.549999999999997
   307   1      7.5299999999999976      21.334999999999994      12.549999999999997
   308   1      7.5299999999999976      22.589999999999993      11.294999999999996
   309   1      6.2749999999999968      21.334999999999994      13.804999999999996
   310   1      6.2749999999999968      22.589999999999993      15.059999999999995
   311   1      7.5299999999999976      21.334999999999994      15.059999999999995
   312   1      7.5299999999999976      22.589999999999993      13.804999999999996
   313   1      6.2749999999999968      21.334999999999994      16.314999999999998
   314   1      6.2749999999999968      22.589999999999993      17.569999999999997
   315   1      7.5299999999999976      21.334999999999994      17.569999999999997
   316   1      7.5299999999999976      22.589999999999993      16.314999999999998
   317   1      6.2749999999999968      21.334999999999994      18.824999999999996
   318   1      6.2749999999999968      22.589999999999993      20.079999999999995
   319   1      7.5299999999999976      21.334999999999994      20.079999999999995
   320   1      7.5299999999999976      22.589999999999993      18.824999999999996
   321   1      6.2749999999999968      21.334999999999994      21.334999999999994
   322   1      6.2749999999999968      22.589999999999993      22.589999999999993
   323   1      7.5299999999999976      21.334999999999994      22.589999999999993
   324   1      7.5299999999999976      22.589999999999993      21.334999999999994
   325   1      6.2749999999999968      21.334999999999994      23.844999999999995
   326   1      7.5299999999999976      21.334999999999994      25.099999999999994
   327   1      7.5299999999999976      22.589999999999993      23.844999999999995
   328   1      7.5299999999999976      23.844999999999995      7.5299999999999976
   329   1      7.5299999999999976      23.844999999999995      10.039999999999996
   330   1      7.5299999999999976      25.099999999999994      8.7849999999999966
   331   1      6.2749999999999968      23.844999999999995      11.294999999999996
   332   1      7.5299999999999976      23.844999999999995      12.549999999999997
   333   1      7.5299999999999976      25.099999999999994      11.294999999999996
   334   1      6.2749999999999968      23.844999999999995      13.804999999999996
   335   1      6.2749999999999968      25.099999999999994      15.059999999999995
   336   1      7.5299999999999976      23.844999999999995      15.059999999999995
   337   1      7.5299999999999976      25.099999999999994      13.804999999999996
   338   1      6.2749999999999968      23.844999999999995      16.314999999999998
   339   1      6.2749999999999968      25.099999999999994      17.569999999999997
   340   1      7.5299999999999976      23.844999999999995      17.569999999999997
   341   1      7.5299999999999976      25.099999999999994      16.314999999999998
   342   1      6.2749999999999968      23.844999999999995      18.824999999999996
   343   1      7.5299999999999976      23.844999999999995      20.079999999999995
   344   1      7.5299999999999976      25.099999999999994      18.824999999999996
   345   1      6.2749999999999968      23.844999999999995      21.334999999999994
   346   1      7.5299999999999976      23.844999999999995      22.589999999999993
   347   1      7.5299999999999976      25.099999999999994      21.334999999999994
   348   1      7.5299999999999976      23.844999999999995      25.099999999999994
   349   1      7.5299999999999976      25.099999999999994      23.844999999999995
   350   1      7.5299999999999976      26.354999999999997      15.059999999999995
   351   1      7.5299999999999976      26.354999999999997      17.569999999999997
   352   1      10.039999999999996       5.019999999999996      11.294999999999996
   353   1      8.7849999999999966       5.019999999999996      15.059999999999995
   354   1      10.039999999999996       5.019999999999996      13.804999999999996
   355   1      8.7849999999999966       5.019999999999996      17.569999999999997
   356   1      10.039999999999996       5.019999999999996      16.314999999999998
   357   1      10.039999999999996       5.019999999999996      18.824999999999996
   358   1      10.039999999999996       5.019999999999996      21.334999999999994