model_files/Ni/Ni_30000/Ni_111/data.Ni_111_fcc_28595 (written by ASE) 

28595 	 atoms 
1  atom types
0.0                     121  xlo xhi
0.0                     121  ylo yhi
0.0                     121  zlo zhi


Atoms 

     1   1      1.7600000000000053      58.080000000000005      59.840000000000003
     2   1      1.7600000000000053      59.840000000000003      58.080000000000005
     3   1  7.1054273576010019e-15      59.840000000000003      59.840000000000003
     4   1      1.7600000000000053      59.840000000000003      61.600000000000009
     5   1      1.7600000000000053      61.600000000000009      59.840000000000003
     6   1      5.2800000000000011      54.560000000000002      59.840000000000003
     7   1      3.5200000000000036      58.080000000000005      58.080000000000005
     8   1      5.2800000000000011      56.320000000000007      58.080000000000005
     9   1      5.2800000000000011      58.080000000000005      56.320000000000007
    10   1      3.5200000000000036      56.320000000000007      59.840000000000003
    11   1      3.5200000000000036      58.080000000000005      61.600000000000009
    12   1      5.2800000000000011      56.320000000000007      61.600000000000009
    13   1      5.2800000000000011      58.080000000000005      59.840000000000003
    14   1      5.2800000000000011      58.080000000000005      63.360000000000007
    15   1      5.2800000000000011      59.840000000000003      54.560000000000002
    16   1      3.5200000000000036      59.840000000000003      56.320000000000007
    17   1      3.5200000000000036      61.600000000000009      58.080000000000005
    18   1      5.2800000000000011      59.840000000000003      58.080000000000005
    19   1      5.2800000000000011      61.600000000000009      56.320000000000007
    20   1      3.5200000000000036      59.840000000000003      59.840000000000003
    21   1      3.5200000000000036      61.600000000000009      61.600000000000009
    22   1      5.2800000000000011      59.840000000000003      61.600000000000009
    23   1      5.2800000000000011      61.600000000000009      59.840000000000003
    24   1      3.5200000000000036      59.840000000000003      63.360000000000007
    25   1      5.2800000000000011      59.840000000000003      65.120000000000005
    26   1      5.2800000000000011      61.600000000000009      63.360000000000007
    27   1      5.2800000000000011      63.360000000000007      58.080000000000005
    28   1      3.5200000000000036      63.360000000000007      59.840000000000003
    29   1      5.2800000000000011      63.360000000000007      61.600000000000009
    30   1      5.2800000000000011      65.120000000000005      59.840000000000003
    31   1      8.8000000000000043      51.039999999999999      59.840000000000003
    32   1      7.0400000000000071      54.560000000000002      58.080000000000005
    33   1      8.8000000000000043      52.800000000000004      58.080000000000005
    34   1      8.8000000000000043      54.560000000000002      56.320000000000007
    35   1      7.0400000000000071      52.800000000000004      59.840000000000003
    36   1      7.0400000000000071      54.560000000000002      61.600000000000009
    37   1      8.8000000000000043      52.800000000000004      61.600000000000009
    38   1      8.8000000000000043      54.560000000000002      59.840000000000003
    39   1      8.8000000000000043      54.560000000000002      63.360000000000007
    40   1      7.0400000000000071      58.080000000000005      54.560000000000002
    41   1      8.8000000000000043      56.320000000000007      54.560000000000002
    42   1      8.8000000000000043      58.080000000000005      52.800000000000004
    43   1      7.0400000000000071      56.320000000000007      56.320000000000007
    44   1      7.0400000000000071      58.080000000000005      58.080000000000005
    45   1      8.8000000000000043      56.320000000000007      58.080000000000005
    46   1      8.8000000000000043      58.080000000000005      56.320000000000007
    47   1      7.0400000000000071      56.320000000000007      59.840000000000003
    48   1      7.0400000000000071      58.080000000000005      61.600000000000009
    49   1      8.8000000000000043      56.320000000000007      61.600000000000009
    50   1      8.8000000000000043      58.080000000000005      59.840000000000003
    51   1      7.0400000000000071      56.320000000000007      63.360000000000007
    52   1      7.0400000000000071      58.080000000000005      65.120000000000005
    53   1      8.8000000000000043      56.320000000000007      65.120000000000005
    54   1      8.8000000000000043      58.080000000000005      63.360000000000007
    55   1      8.8000000000000043      58.080000000000005       66.88000000000001
    56   1      8.8000000000000043      59.840000000000003      51.039999999999999
    57   1      7.0400000000000071      59.840000000000003      52.800000000000004
    58   1      7.0400000000000071      61.600000000000009      54.560000000000002
    59   1      8.8000000000000043      59.840000000000003      54.560000000000002
    60   1      8.8000000000000043      61.600000000000009      52.800000000000004
    61   1      7.0400000000000071      59.840000000000003      56.320000000000007
    62   1      7.0400000000000071      61.600000000000009      58.080000000000005
    63   1      8.8000000000000043      59.840000000000003      58.080000000000005
    64   1      8.8000000000000043      61.600000000000009      56.320000000000007
    65   1      7.0400000000000071      59.840000000000003      59.840000000000003
    66   1      7.0400000000000071      61.600000000000009      61.600000000000009
    67   1      8.8000000000000043      59.840000000000003      61.600000000000009
    68   1      8.8000000000000043      61.600000000000009      59.840000000000003
    69   1      7.0400000000000071      59.840000000000003      63.360000000000007
    70   1      7.0400000000000071      61.600000000000009      65.120000000000005
    71   1      8.8000000000000043      59.840000000000003      65.120000000000005
    72   1      8.8000000000000043      61.600000000000009      63.360000000000007
    73   1      7.0400000000000071      59.840000000000003       66.88000000000001
    74   1      8.8000000000000043      59.840000000000003      68.640000000000015
    75   1      8.8000000000000043      61.600000000000009       66.88000000000001
    76   1      8.8000000000000043      63.360000000000007      54.560000000000002
    77   1      7.0400000000000071      63.360000000000007      56.320000000000007
    78   1      7.0400000000000071      65.120000000000005      58.080000000000005
    79   1      8.8000000000000043      63.360000000000007      58.080000000000005
    80   1      8.8000000000000043      65.120000000000005      56.320000000000007
    81   1      7.0400000000000071      63.360000000000007      59.840000000000003
    82   1      7.0400000000000071      65.120000000000005      61.600000000000009
    83   1      8.8000000000000043      63.360000000000007      61.600000000000009
    84   1      8.8000000000000043      65.120000000000005      59.840000000000003
    85   1      7.0400000000000071      63.360000000000007      63.360000000000007
    86   1      8.8000000000000043      63.360000000000007      65.120000000000005
    87   1      8.8000000000000043      65.120000000000005      63.360000000000007
    88   1      8.8000000000000043       66.88000000000001      58.080000000000005
    89   1      7.0400000000000071       66.88000000000001      59.840000000000003
    90   1      8.8000000000000043       66.88000000000001      61.600000000000009
    91   1      8.8000000000000043      68.640000000000015      59.840000000000003
    92   1      12.320000000000007      47.520000000000003      59.840000000000003
    93   1      10.560000000000002      51.039999999999999      58.080000000000005
    94   1      12.320000000000007      49.280000000000001      58.080000000000005
    95   1      12.320000000000007      51.039999999999999      56.320000000000007
    96   1      10.560000000000002      49.280000000000001      59.840000000000003
    97   1      10.560000000000002      51.039999999999999      61.600000000000009
    98   1      12.320000000000007      49.280000000000001      61.600000000000009
    99   1      12.320000000000007      51.039999999999999      59.840000000000003
   100   1      12.320000000000007      51.039999999999999      63.360000000000007
   101   1      10.560000000000002      54.560000000000002      54.560000000000002
   102   1      12.320000000000007      52.800000000000004      54.560000000000002
   103   1      12.320000000000007      54.560000000000002      52.800000000000004
   104   1      10.560000000000002      52.800000000000004      56.320000000000007
   105   1      10.560000000000002      54.560000000000002      58.080000000000005
   106   1      12.320000000000007      52.800000000000004      58.080000000000005
   107   1      12.320000000000007      54.560000000000002      56.320000000000007
   108   1      10.560000000000002      52.800000000000004      59.840000000000003
   109   1      10.560000000000002      54.560000000000002      61.600000000000009
   110   1      12.320000000000007      52.800000000000004      61.600000000000009
   111   1      12.320000000000007      54.560000000000002      59.840000000000003
   112   1      10.560000000000002      52.800000000000004      63.360000000000007
   113   1      10.560000000000002      54.560000000000002      65.120000000000005
   114   1      12.320000000000007      52.800000000000004      65.120000000000005
   115   1      12.320000000000007      54.560000000000002      63.360000000000007
   116   1      12.320000000000007      54.560000000000002       66.88000000000001
   117   1      10.560000000000002      58.080000000000005      51.039999999999999
   118   1      12.320000000000007      56.320000000000007      51.039999999999999
   119   1      12.320000000000007      58.080000000000005      49.280000000000001
   120   1      10.560000000000002      56.320000000000007      52.800000000000004
   121   1      10.560000000000002      58.080000000000005      54.560000000000002
   122   1      12.320000000000007      56.320000000000007      54.560000000000002
   123   1      12.320000000000007      58.080000000000005      52.800000000000004
   124   1      10.560000000000002      56.320000000000007      56.320000000000007
   125   1      10.560000000000002      58.080000000000005      58.080000000000005
   126   1      12.320000000000007      56.320000000000007      58.080000000000005
   127   1      12.320000000000007      58.080000000000005      56.320000000000007
   128   1      10.560000000000002      56.320000000000007      59.840000000000003
   129   1      10.560000000000002      58.080000000000005      61.600000000000009
   130   1      12.320000000000007      56.320000000000007      61.600000000000009
   131   1      12.320000000000007      58.080000000000005      59.840000000000003
   132   1      10.560000000000002      56.320000000000007      63.360000000000007
   133   1      10.560000000000002      58.080000000000005      65.120000000000005
   134   1      12.320000000000007      56.320000000000007      65.120000000000005
   135   1      12.320000000000007      58.080000000000005      63.360000000000007
   136   1      10.560000000000002      56.320000000000007       66.88000000000001
   137   1      10.560000000000002      58.080000000000005      68.640000000000015
   138   1      12.320000000000007      56.320000000000007      68.640000000000015
   139   1      12.320000000000007      58.080000000000005       66.88000000000001
   140   1      12.320000000000007      58.080000000000005      70.400000000000006
   141   1      12.320000000000007      59.840000000000003      47.520000000000003
   142   1      10.560000000000002      59.840000000000003      49.280000000000001
   143   1      10.560000000000002      61.600000000000009      51.039999999999999
   144   1      12.320000000000007      59.840000000000003      51.039999999999999
   145   1      12.320000000000007      61.600000000000009      49.280000000000001
   146   1      10.560000000000002      59.840000000000003      52.800000000000004
   147   1      10.560000000000002      61.600000000000009      54.560000000000002
   148   1      12.320000000000007      59.840000000000003      54.560000000000002
   149   1      12.320000000000007      61.600000000000009      52.800000000000004
   150   1      10.560000000000002      59.840000000000003      56.320000000000007
   151   1      10.560000000000002      61.600000000000009      58.080000000000005
   152   1      12.320000000000007      59.840000000000003      58.080000000000005
   153   1      12.320000000000007      61.600000000000009      56.320000000000007
   154   1      10.560000000000002      59.840000000000003      59.840000000000003
   155   1      10.560000000000002      61.600000000000009      61.600000000000009
   156   1      12.320000000000007      59.840000000000003      61.600000000000009
   157   1      12.320000000000007      61.600000000000009      59.840000000000003
   158   1      10.560000000000002      59.840000000000003      63.360000000000007
   159   1      10.560000000000002      61.600000000000009      65.120000000000005
   160   1      12.320000000000007      59.840000000000003      65.120000000000005
   161   1      12.320000000000007      61.600000000000009      63.360000000000007
   162   1      10.560000000000002      59.840000000000003       66.88000000000001
   163   1      10.560000000000002      61.600000000000009      68.640000000000015
   164   1      12.320000000000007      59.840000000000003      68.640000000000015
   165   1      12.320000000000007      61.600000000000009       66.88000000000001
   166   1      10.560000000000002      59.840000000000003      70.400000000000006
   167   1      12.320000000000007      59.840000000000003      72.160000000000011
   168   1      12.320000000000007      61.600000000000009      70.400000000000006
   169   1      12.320000000000007      63.360000000000007      51.039999999999999
   170   1      10.560000000000002      63.360000000000007      52.800000000000004
   171   1      10.560000000000002      65.120000000000005      54.560000000000002
   172   1      12.320000000000007      63.360000000000007      54.560000000000002
   173   1      12.320000000000007      65.120000000000005      52.800000000000004
   174   1      10.560000000000002      63.360000000000007      56.320000000000007
   175   1      10.560000000000002      65.120000000000005      58.080000000000005
   176   1      12.320000000000007      63.360000000000007      58.080000000000005
   177   1      12.320000000000007      65.120000000000005      56.320000000000007
   178   1      10.560000000000002      63.360000000000007      59.840000000000003
   179   1      10.560000000000002      65.120000000000005      61.600000000000009
   180   1      12.320000000000007      63.360000000000007      61.600000000000009
   181   1      12.320000000000007      65.120000000000005      59.840000000000003
   182   1      10.560000000000002      63.360000000000007      63.360000000000007
   183   1      10.560000000000002      65.120000000000005      65.120000000000005
   184   1      12.320000000000007      63.360000000000007      65.120000000000005
   185   1      12.320000000000007      65.120000000000005      63.360000000000007
   186   1      10.560000000000002      63.360000000000007       66.88000000000001
   187   1      12.320000000000007      63.360000000000007      68.640000000000015
   188   1      12.320000000000007      65.120000000000005       66.88000000000001
   189   1      12.320000000000007       66.88000000000001      54.560000000000002
   190   1      10.560000000000002       66.88000000000001      56.320000000000007
   191   1      10.560000000000002      68.640000000000015      58.080000000000005
   192   1      12.320000000000007       66.88000000000001      58.080000000000005
   193   1      12.320000000000007      68.640000000000015      56.320000000000007
   194   1      10.560000000000002       66.88000000000001      59.840000000000003
   195   1      10.560000000000002      68.640000000000015      61.600000000000009
   196   1      12.320000000000007       66.88000000000001      61.600000000000009
   197   1      12.320000000000007      68.640000000000015      59.840000000000003
   198   1      10.560000000000002       66.88000000000001      63.360000000000007
   199   1      12.320000000000007       66.88000000000001      65.120000000000005
   200   1      12.320000000000007      68.640000000000015      63.360000000000007
   201   1      12.320000000000007      70.400000000000006      58.080000000000005
   202   1      10.560000000000002      70.400000000000006      59.840000000000003
   203   1      12.320000000000007      70.400000000000006      61.600000000000009
   204   1      12.320000000000007      72.160000000000011      59.840000000000003
   205   1      15.840000000000005                      44      59.840000000000003
   206   1      14.080000000000005      47.520000000000003      58.080000000000005
   207   1      15.840000000000005      45.760000000000005      58.080000000000005
   208   1      15.840000000000005      47.520000000000003      56.320000000000007
   209   1      14.080000000000005      45.760000000000005      59.840000000000003
   210   1      14.080000000000005      47.520000000000003      61.600000000000009
   211   1      15.840000000000005      45.760000000000005      61.600000000000009
   212   1      15.840000000000005      47.520000000000003      59.840000000000003
   213   1      15.840000000000005      47.520000000000003      63.360000000000007
   214   1      14.080000000000005      51.039999999999999      54.560000000000002
   215   1      15.840000000000005      49.280000000000001      54.560000000000002
   216   1      15.840000000000005      51.039999999999999      52.800000000000004
   217   1      14.080000000000005      49.280000000000001      56.320000000000007
   218   1      14.080000000000005      51.039999999999999      58.080000000000005
   219   1      15.840000000000005      49.280000000000001      58.080000000000005
   220   1      15.840000000000005      51.039999999999999      56.320000000000007
   221   1      14.080000000000005      49.280000000000001      59.840000000000003
   222   1      14.080000000000005      51.039999999999999      61.600000000000009
   223   1      15.840000000000005      49.280000000000001      61.600000000000009
   224   1      15.840000000000005      51.039999999999999      59.840000000000003
   225   1      14.080000000000005      49.280000000000001      63.360000000000007
   226   1      14.080000000000005      51.039999999999999      65.120000000000005
   227   1      15.840000000000005      49.280000000000001      65.120000000000005
   228   1      15.840000000000005      51.039999999999999      63.360000000000007
   229   1      15.840000000000005      51.039999999999999       66.88000000000001
   230   1      14.080000000000005      54.560000000000002      51.039999999999999
   231   1      15.840000000000005      52.800000000000004      51.039999999999999
   232   1      15.840000000000005      54.560000000000002      49.280000000000001
   233   1      14.080000000000005      52.800000000000004      52.800000000000004
   234   1      14.080000000000005      54.560000000000002      54.560000000000002
   235   1      15.840000000000005      52.800000000000004      54.560000000000002
   236   1      15.840000000000005      54.560000000000002      52.800000000000004
   237   1      14.080000000000005      52.800000000000004      56.320000000000007
   238   1      14.080000000000005      54.560000000000002      58.080000000000005
   239   1      15.840000000000005      52.800000000000004      58.080000000000005
   240   1      15.840000000000005      54.560000000000002      56.320000000000007
   241   1      14.080000000000005      52.800000000000004      59.840000000000003
   242   1      14.080000000000005      54.560000000000002      61.600000000000009
   243   1      15.840000000000005      52.800000000000004      61.600000000000009
   244   1      15.840000000000005      54.560000000000002      59.840000000000003
   245   1      14.080000000000005      52.800000000000004      63.360000000000007
   246   1      14.080000000000005      54.560000000000002      65.120000000000005
   247   1      15.840000000000005      52.800000000000004      65.120000000000005
   248   1      15.840000000000005      54.560000000000002      63.360000000000007
   249   1      14.080000000000005      52.800000000000004       66.88000000000001
   250   1      14.080000000000005      54.560000000000002      68.640000000000015
   251   1      15.840000000000005      52.800000000000004      68.640000000000015
   252   1      15.840000000000005      54.560000000000002       66.88000000000001
   253   1      15.840000000000005      54.560000000000002      70.400000000000006
   254   1      14.080000000000005      58.080000000000005      47.520000000000003
   255   1      15.840000000000005      56.320000000000007      47.520000000000003
   256   1      15.840000000000005      58.080000000000005      45.760000000000005
   257   1      14.080000000000005      56.320000000000007      49.280000000000001
   258   1      14.080000000000005      58.080000000000005      51.039999999999999
   259   1      15.840000000000005      56.320000000000007      51.039999999999999
   260   1      15.840000000000005      58.080000000000005      49.280000000000001
   261   1      14.080000000000005      56.320000000000007      52.800000000000004
   262   1      14.080000000000005      58.080000000000005      54.560000000000002
   263   1      15.840000000000005      56.320000000000007      54.560000000000002
   264   1      15.840000000000005      58.080000000000005      52.800000000000004
   265   1      14.080000000000005      56.320000000000007      56.320000000000007
   266   1      14.080000000000005      58.080000000000005      58.080000000000005
   267   1      15.840000000000005      56.320000000000007      58.080000000000005
   268   1      15.840000000000005      58.080000000000005      56.320000000000007
   269   1      14.080000000000005      56.320000000000007      59.840000000000003
   270   1      14.080000000000005      58.080000000000005      61.600000000000009
   271   1      15.840000000000005      56.320000000000007      61.600000000000009
   272   1      15.840000000000005      58.080000000000005      59.840000000000003
   273   1      14.080000000000005      56.320000000000007      63.360000000000007
   274   1      14.080000000000005      58.080000000000005      65.120000000000005
   275   1      15.840000000000005      56.320000000000007      65.120000000000005
   276   1      15.840000000000005      58.080000000000005      63.360000000000007
   277   1      14.080000000000005      56.320000000000007       66.88000000000001
   278   1      14.080000000000005      58.080000000000005      68.640000000000015
   279   1      15.840000000000005      56.320000000000007      68.640000000000015
   280   1      15.840000000000005      58.080000000000005       66.88000000000001
   281   1      14.080000000000005      56.320000000000007      70.400000000000006
   282   1      14.080000000000005      58.080000000000005      72.160000000000011
   283   1      15.840000000000005      56.320000000000007      72.160000000000011
   284   1      15.840000000000005      58.080000000000005      70.400000000000006
   285   1      15.840000000000005      58.080000000000005      73.920000000000002
   286   1      15.840000000000005      59.840000000000003                      44
   287   1      14.080000000000005      59.840000000000003      45.760000000000005
   288   1      14.080000000000005      61.600000000000009      47.520000000000003
   289   1      15.840000000000005      59.840000000000003      47.520000000000003
   290   1      15.840000000000005      61.600000000000009      45.760000000000005
   291   1      14.080000000000005      59.840000000000003      49.280000000000001
   292   1      14.080000000000005      61.600000000000009      51.039999999999999
   293   1      15.840000000000005      59.840000000000003      51.039999999999999
   294   1      15.840000000000005      61.600000000000009      49.280000000000001
   295   1      14.080000000000005      59.840000000000003      52.800000000000004
   296   1      14.080000000000005      61.600000000000009      54.560000000000002
   297   1      15.840000000000005      59.840000000000003      54.560000000000002
   298   1      15.840000000000005      61.600000000000009      52.800000000000004
   299   1      14.080000000000005      59.840000000000003      56.320000000000007
   300   1      14.080000000000005      61.600000000000009      58.080000000000005
   301   1      15.840000000000005      59.840000000000003      58.080000000000005
   302   1      15.840000000000005      61.600000000000009      56.320000000000007
   303   1      14.080000000000005      59.840000000000003      59.840000000000003
   304   1      14.080000000000005      61.600000000000009      61.600000000000009
   305   1      15.840000000000005      59.840000000000003      61.600000000000009
   306   1      15.840000000000005      61.600000000000009      59.840000000000003
   307   1      14.080000000000005      59.840000000000003      63.360000000000007
   308   1      14.080000000000005      61.600000000000009      65.120000000000005
   309   1      15.840000000000005      59.840000000000003      65.120000000000005
   310   1      15.840000000000005      61.600000000000009      63.360000000000007
   311   1      14.080000000000005      59.840000000000003       66.88000000000001
   312   1      14.080000000000005      61.600000000000009      68.640000000000015
   313   1      15.840000000000005      59.840000000000003      68.640000000000015
   314   1      15.840000000000005      61.600000000000009       66.88000000000001
   315   1      14.080000000000005      59.840000000000003      70.400000000000006
   316   1      14.080000000000005      61.600000000000009      72.160000000000011
   317   1      15.840000000000005      59.840000000000003      72.160000000000011
   318   1      15.840000000000005      61.600000000000009      70.400000000000006
   319   1      14.080000000000005      59.840000000000003      73.920000000000002
   320   1      15.840000000000005      59.840000000000003      75.680000000000007
   321   1      15.840000000000005      61.600000000000009      73.920000000000002
   322   1      15.840000000000005      63.360000000000007      47.520000000000003
   323   1      14.080000000000005      63.360000000000007      49.280000000000001
   324   1      14.080000000000005      65.120000000000005      51.039999999999999
   325   1      15.840000000000005      63.360000000000007      51.039999999999999
   326   1      15.840000000000005      65.120000000000005      49.280000000000001
   327   1      14.080000000000005      63.360000000000007      52.800000000000004
   328   1      14.080000000000005      65.120000000000005      54.560000000000002
   329   1      15.840000000000005      63.360000000000007      54.560000000000002
   330   1      15.840000000000005      65.120000000000005      52.800000000000004
   331   1      14.080000000000005      63.360000000000007      56.320000000000007
   332   1      14.080000000000005      65.120000000000005      58.080000000000005
   333   1      15.840000000000005      63.360000000000007      58.080000000000005
   334   1      15.840000000000005      65.120000000000005      56.320000000000007
   335   1      14.080000000000005      63.360000000000007      59.840000000000003
   336   1      14.080000000000005      65.120000000000005      61.600000000000009
   337   1      15.840000000000005      63.360000000000007      61.600000000000009
   338   1      15.840000000000005      65.120000000000005      59.840000000000003
   339   1      14.080000000000005      63.360000000000007      63.360000000000007
   340   1      14.080000000000005      65.120000000000005      65.120000000000005
   341   1      15.840000000000005      63.360000000000007      65.120000000000005
   342   1      15.840000000000005      65.120000000000005      63.360000000000007
   343   1      14.080000000000005      63.360000000000007       66.88000000000001
   344   1      14.080000000000005      65.120000000000005      68.640000000000015
   345   1      15.840000000000005      63.360000000000007      68.640000000000015
   346   1      15.840000000000005      65.120000000000005       66.88000000000001
   347   1      14.080000000000005      63.360000000000007      70.400000000000006
   348   1      15.840000000000005      63.360000000000007      72.160000000000011
   349   1      15.840000000000005      65.120000000000005      70.400000000000006
   350   1      15.840000000000005       66.88000000000001      51.039999999999999
   351   1      14.080000000000005       66.88000000000001      52.800000000000004
   352   1      14.080000000000005      68.640000000000015      54.560000000000002
   353   1      15.840000000000005       66.88000000000001      54.560000000000002
   354   1      15.840000000000005      68.640000000000015      52.800000000000004
   355   1      14.080000000000005       66.88000000000001      56.320000000000007
   356   1      14.080000000000005      68.640000000000015      58.080000000000005
   357   1      15.840000000000005       66.88000000000001      58.080000000000005
   358   1      15.840000000000005      68.640000000000015      56.320000000000007