model_files/Pt/Pt_30000/Pt_410/data.Pt_410_fcc_29755 (written by ASE) 

29755 	 atoms 
1  atom types
0.0                      86  xlo xhi
0.0                      86  ylo yhi
0.0                      86  zlo zhi


Atoms 

     1   1      1.9600000000000009      31.359999999999999                   33.32
     2   1      1.9600000000000009                   33.32      31.359999999999999
     3   1      1.9600000000000009      31.359999999999999      37.240000000000002
     4   1      1.9600000000000009                   33.32      35.280000000000001
     5   1      1.9600000000000009      31.359999999999999      41.159999999999997
     6   1      1.9600000000000009                   33.32      39.199999999999996
     7   1      1.9600000000000009      31.359999999999999      45.079999999999998
     8   1      1.9600000000000009                   33.32      43.119999999999997
     9   1      1.9600000000000009      31.359999999999999                      49
    10   1      1.9600000000000009                   33.32      47.039999999999999
    11   1      1.9600000000000009      31.359999999999999      52.919999999999995
    12   1      1.9600000000000009                   33.32      50.959999999999994
    13   1      1.9600000000000009                   33.32      54.879999999999995
    14   1      1.9600000000000009      35.280000000000001                   33.32
    15   1      1.9600000000000009      37.240000000000002      31.359999999999999
    16   1      1.9600000000000009      35.280000000000001      37.240000000000002
    17   1      1.9600000000000009      37.240000000000002      35.280000000000001
    18   1      1.9600000000000009      35.280000000000001      41.159999999999997
    19   1      1.9600000000000009      37.240000000000002      39.199999999999996
    20   1      1.9600000000000009      35.280000000000001      45.079999999999998
    21   1      1.9600000000000009      37.240000000000002      43.119999999999997
    22   1      1.9600000000000009      35.280000000000001                      49
    23   1      1.9600000000000009      37.240000000000002      47.039999999999999
    24   1      1.9600000000000009      35.280000000000001      52.919999999999995
    25   1      1.9600000000000009      37.240000000000002      50.959999999999994
    26   1      1.9600000000000009      37.240000000000002      54.879999999999995
    27   1      1.9600000000000009      39.199999999999996                   33.32
    28   1      1.9600000000000009      41.159999999999997      31.359999999999999
    29   1      1.9600000000000009      39.199999999999996      37.240000000000002
    30   1      1.9600000000000009      41.159999999999997      35.280000000000001
    31   1                       0      39.199999999999996      39.199999999999996
    32   1                       0      41.159999999999997      41.159999999999997
    33   1      1.9600000000000009      39.199999999999996      41.159999999999997
    34   1      1.9600000000000009      41.159999999999997      39.199999999999996
    35   1                       0      39.199999999999996      43.119999999999997
    36   1                       0      41.159999999999997      45.079999999999998
    37   1      1.9600000000000009      39.199999999999996      45.079999999999998
    38   1      1.9600000000000009      41.159999999999997      43.119999999999997
    39   1                       0      39.199999999999996      47.039999999999999
    40   1      1.9600000000000009      39.199999999999996                      49
    41   1      1.9600000000000009      41.159999999999997      47.039999999999999
    42   1      1.9600000000000009      39.199999999999996      52.919999999999995
    43   1      1.9600000000000009      41.159999999999997      50.959999999999994
    44   1      1.9600000000000009      41.159999999999997      54.879999999999995
    45   1      1.9600000000000009      43.119999999999997                   33.32
    46   1      1.9600000000000009      45.079999999999998      31.359999999999999
    47   1      1.9600000000000009      43.119999999999997      37.240000000000002
    48   1      1.9600000000000009      45.079999999999998      35.280000000000001
    49   1                       0      43.119999999999997      39.199999999999996
    50   1                       0      45.079999999999998      41.159999999999997
    51   1      1.9600000000000009      43.119999999999997      41.159999999999997
    52   1      1.9600000000000009      45.079999999999998      39.199999999999996
    53   1                       0      43.119999999999997      43.119999999999997
    54   1                       0      45.079999999999998      45.079999999999998
    55   1      1.9600000000000009      43.119999999999997      45.079999999999998
    56   1      1.9600000000000009      45.079999999999998      43.119999999999997
    57   1                       0      43.119999999999997      47.039999999999999
    58   1      1.9600000000000009      43.119999999999997                      49
    59   1      1.9600000000000009      45.079999999999998      47.039999999999999
    60   1      1.9600000000000009      43.119999999999997      52.919999999999995
    61   1      1.9600000000000009      45.079999999999998      50.959999999999994
    62   1      1.9600000000000009      45.079999999999998      54.879999999999995
    63   1      1.9600000000000009      47.039999999999999                   33.32
    64   1      1.9600000000000009                      49      31.359999999999999
    65   1      1.9600000000000009      47.039999999999999      37.240000000000002
    66   1      1.9600000000000009                      49      35.280000000000001
    67   1                       0      47.039999999999999      39.199999999999996
    68   1      1.9600000000000009      47.039999999999999      41.159999999999997
    69   1      1.9600000000000009                      49      39.199999999999996
    70   1                       0      47.039999999999999      43.119999999999997
    71   1      1.9600000000000009      47.039999999999999      45.079999999999998
    72   1      1.9600000000000009                      49      43.119999999999997
    73   1                       0      47.039999999999999      47.039999999999999
    74   1      1.9600000000000009      47.039999999999999                      49
    75   1      1.9600000000000009                      49      47.039999999999999
    76   1      1.9600000000000009      47.039999999999999      52.919999999999995
    77   1      1.9600000000000009                      49      50.959999999999994
    78   1      1.9600000000000009                      49      54.879999999999995
    79   1      1.9600000000000009      50.959999999999994                   33.32
    80   1      1.9600000000000009      52.919999999999995      31.359999999999999
    81   1      1.9600000000000009      50.959999999999994      37.240000000000002
    82   1      1.9600000000000009      52.919999999999995      35.280000000000001
    83   1      1.9600000000000009      50.959999999999994      41.159999999999997
    84   1      1.9600000000000009      52.919999999999995      39.199999999999996
    85   1      1.9600000000000009      50.959999999999994      45.079999999999998
    86   1      1.9600000000000009      52.919999999999995      43.119999999999997
    87   1      1.9600000000000009      50.959999999999994                      49
    88   1      1.9600000000000009      52.919999999999995      47.039999999999999
    89   1      1.9600000000000009      50.959999999999994      52.919999999999995
    90   1      1.9600000000000009      52.919999999999995      50.959999999999994
    91   1      1.9600000000000009      52.919999999999995      54.879999999999995
    92   1      1.9600000000000009      54.879999999999995                   33.32
    93   1      1.9600000000000009      54.879999999999995      37.240000000000002
    94   1      1.9600000000000009      54.879999999999995      41.159999999999997
    95   1      1.9600000000000009      54.879999999999995      45.079999999999998
    96   1      1.9600000000000009      54.879999999999995                      49
    97   1      1.9600000000000009      54.879999999999995      52.919999999999995
    98   1      5.8800000000000017                   15.68      17.640000000000001
    99   1      5.8800000000000017      17.640000000000001                   15.68
   100   1      5.8800000000000017                   15.68      21.559999999999999
   101   1      5.8800000000000017      17.640000000000001      19.599999999999998
   102   1      5.8800000000000017                   15.68      25.479999999999997
   103   1      5.8800000000000017      17.640000000000001      23.519999999999992
   104   1      5.8800000000000017                   15.68      29.399999999999999
   105   1      5.8800000000000017      17.640000000000001      27.439999999999998
   106   1      5.8800000000000017                   15.68                   33.32
   107   1      5.8800000000000017      17.640000000000001      31.359999999999999
   108   1      5.8800000000000017                   15.68      37.240000000000002
   109   1      5.8800000000000017      17.640000000000001      35.280000000000001
   110   1      5.8800000000000017                   15.68      41.159999999999997
   111   1      5.8800000000000017      17.640000000000001      39.199999999999996
   112   1      5.8800000000000017                   15.68      45.079999999999998
   113   1      5.8800000000000017      17.640000000000001      43.119999999999997
   114   1      5.8800000000000017                   15.68                      49
   115   1      5.8800000000000017      17.640000000000001      47.039999999999999
   116   1      5.8800000000000017                   15.68      52.919999999999995
   117   1      5.8800000000000017      17.640000000000001      50.959999999999994
   118   1      5.8800000000000017                   15.68      56.839999999999989
   119   1      5.8800000000000017      17.640000000000001      54.879999999999995
   120   1      5.8800000000000017                   15.68      60.759999999999991
   121   1      5.8800000000000017      17.640000000000001      58.799999999999997
   122   1      5.8800000000000017                   15.68      64.679999999999993
   123   1      5.8800000000000017      17.640000000000001      62.719999999999999
   124   1      5.8800000000000017                   15.68      68.599999999999994
   125   1      5.8800000000000017      17.640000000000001      66.640000000000001
   126   1      5.8800000000000017      17.640000000000001      70.560000000000002
   127   1      5.8800000000000017      19.599999999999998      17.640000000000001
   128   1      5.8800000000000017      21.559999999999999                   15.68
   129   1      5.8800000000000017      19.599999999999998      21.559999999999999
   130   1      5.8800000000000017      21.559999999999999      19.599999999999998
   131   1      5.8800000000000017      19.599999999999998      25.479999999999997
   132   1      5.8800000000000017      21.559999999999999      23.519999999999992
   133   1      5.8800000000000017      19.599999999999998      29.399999999999999
   134   1      5.8800000000000017      21.559999999999999      27.439999999999998
   135   1      5.8800000000000017      19.599999999999998                   33.32
   136   1      5.8800000000000017      21.559999999999999      31.359999999999999
   137   1      5.8800000000000017      19.599999999999998      37.240000000000002
   138   1      5.8800000000000017      21.559999999999999      35.280000000000001
   139   1      5.8800000000000017      19.599999999999998      41.159999999999997
   140   1      5.8800000000000017      21.559999999999999      39.199999999999996
   141   1      5.8800000000000017      19.599999999999998      45.079999999999998
   142   1      5.8800000000000017      21.559999999999999      43.119999999999997
   143   1      5.8800000000000017      19.599999999999998                      49
   144   1      5.8800000000000017      21.559999999999999      47.039999999999999
   145   1      5.8800000000000017      19.599999999999998      52.919999999999995
   146   1      5.8800000000000017      21.559999999999999      50.959999999999994
   147   1      5.8800000000000017      19.599999999999998      56.839999999999989
   148   1      5.8800000000000017      21.559999999999999      54.879999999999995
   149   1      5.8800000000000017      19.599999999999998      60.759999999999991
   150   1      5.8800000000000017      21.559999999999999      58.799999999999997
   151   1      5.8800000000000017      19.599999999999998      64.679999999999993
   152   1      5.8800000000000017      21.559999999999999      62.719999999999999
   153   1      5.8800000000000017      19.599999999999998      68.599999999999994
   154   1      5.8800000000000017      21.559999999999999      66.640000000000001
   155   1      5.8800000000000017      21.559999999999999      70.560000000000002
   156   1      5.8800000000000017      23.519999999999992      17.640000000000001
   157   1      5.8800000000000017      25.479999999999997                   15.68
   158   1      5.8800000000000017      23.519999999999992      21.559999999999999
   159   1      5.8800000000000017      25.479999999999997      19.599999999999998
   160   1      3.9199999999999942      23.519999999999992      23.519999999999992
   161   1      3.9199999999999942      25.479999999999997      25.479999999999997
   162   1      5.8800000000000017      23.519999999999992      25.479999999999997
   163   1      5.8800000000000017      25.479999999999997      23.519999999999992
   164   1      3.9199999999999942      23.519999999999992      27.439999999999998
   165   1      3.9199999999999942      25.479999999999997      29.399999999999999
   166   1      5.8800000000000017      23.519999999999992      29.399999999999999
   167   1      5.8800000000000017      25.479999999999997      27.439999999999998
   168   1      3.9199999999999942      23.519999999999992      31.359999999999999
   169   1      3.9199999999999942      25.479999999999997                   33.32
   170   1      5.8800000000000017      23.519999999999992                   33.32
   171   1      5.8800000000000017      25.479999999999997      31.359999999999999
   172   1      3.9199999999999942      23.519999999999992      35.280000000000001
   173   1      3.9199999999999942      25.479999999999997      37.240000000000002
   174   1      5.8800000000000017      23.519999999999992      37.240000000000002
   175   1      5.8800000000000017      25.479999999999997      35.280000000000001
   176   1      3.9199999999999942      23.519999999999992      39.199999999999996
   177   1      3.9199999999999942      25.479999999999997      41.159999999999997
   178   1      5.8800000000000017      23.519999999999992      41.159999999999997
   179   1      5.8800000000000017      25.479999999999997      39.199999999999996
   180   1      3.9199999999999942      23.519999999999992      43.119999999999997
   181   1      3.9199999999999942      25.479999999999997      45.079999999999998
   182   1      5.8800000000000017      23.519999999999992      45.079999999999998
   183   1      5.8800000000000017      25.479999999999997      43.119999999999997
   184   1      3.9199999999999942      23.519999999999992      47.039999999999999
   185   1      3.9199999999999942      25.479999999999997                      49
   186   1      5.8800000000000017      23.519999999999992                      49
   187   1      5.8800000000000017      25.479999999999997      47.039999999999999
   188   1      3.9199999999999942      23.519999999999992      50.959999999999994
   189   1      3.9199999999999942      25.479999999999997      52.919999999999995
   190   1      5.8800000000000017      23.519999999999992      52.919999999999995
   191   1      5.8800000000000017      25.479999999999997      50.959999999999994
   192   1      3.9199999999999942      23.519999999999992      54.879999999999995
   193   1      3.9199999999999942      25.479999999999997      56.839999999999989
   194   1      5.8800000000000017      23.519999999999992      56.839999999999989
   195   1      5.8800000000000017      25.479999999999997      54.879999999999995
   196   1      3.9199999999999942      23.519999999999992      58.799999999999997
   197   1      3.9199999999999942      25.479999999999997      60.759999999999991
   198   1      5.8800000000000017      23.519999999999992      60.759999999999991
   199   1      5.8800000000000017      25.479999999999997      58.799999999999997
   200   1      3.9199999999999942      23.519999999999992      62.719999999999999
   201   1      5.8800000000000017      23.519999999999992      64.679999999999993
   202   1      5.8800000000000017      25.479999999999997      62.719999999999999
   203   1      5.8800000000000017      23.519999999999992      68.599999999999994
   204   1      5.8800000000000017      25.479999999999997      66.640000000000001
   205   1      5.8800000000000017      25.479999999999997      70.560000000000002
   206   1      5.8800000000000017      27.439999999999998      17.640000000000001
   207   1      5.8800000000000017      29.399999999999999                   15.68
   208   1      5.8800000000000017      27.439999999999998      21.559999999999999
   209   1      5.8800000000000017      29.399999999999999      19.599999999999998
   210   1      3.9199999999999942      27.439999999999998      23.519999999999992
   211   1      3.9199999999999942      29.399999999999999      25.479999999999997
   212   1      5.8800000000000017      27.439999999999998      25.479999999999997
   213   1      5.8800000000000017      29.399999999999999      23.519999999999992
   214   1      3.9199999999999942      27.439999999999998      27.439999999999998
   215   1      3.9199999999999942      29.399999999999999      29.399999999999999
   216   1      5.8800000000000017      27.439999999999998      29.399999999999999
   217   1      5.8800000000000017      29.399999999999999      27.439999999999998
   218   1      3.9199999999999942      27.439999999999998      31.359999999999999
   219   1      3.9199999999999942      29.399999999999999                   33.32
   220   1      5.8800000000000017      27.439999999999998                   33.32
   221   1      5.8800000000000017      29.399999999999999      31.359999999999999
   222   1      3.9199999999999942      27.439999999999998      35.280000000000001
   223   1      3.9199999999999942      29.399999999999999      37.240000000000002
   224   1      5.8800000000000017      27.439999999999998      37.240000000000002
   225   1      5.8800000000000017      29.399999999999999      35.280000000000001
   226   1      3.9199999999999942      27.439999999999998      39.199999999999996
   227   1      3.9199999999999942      29.399999999999999      41.159999999999997
   228   1      5.8800000000000017      27.439999999999998      41.159999999999997
   229   1      5.8800000000000017      29.399999999999999      39.199999999999996
   230   1      3.9199999999999942      27.439999999999998      43.119999999999997
   231   1      3.9199999999999942      29.399999999999999      45.079999999999998
   232   1      5.8800000000000017      27.439999999999998      45.079999999999998
   233   1      5.8800000000000017      29.399999999999999      43.119999999999997
   234   1      3.9199999999999942      27.439999999999998      47.039999999999999
   235   1      3.9199999999999942      29.399999999999999                      49
   236   1      5.8800000000000017      27.439999999999998                      49
   237   1      5.8800000000000017      29.399999999999999      47.039999999999999
   238   1      3.9199999999999942      27.439999999999998      50.959999999999994
   239   1      3.9199999999999942      29.399999999999999      52.919999999999995
   240   1      5.8800000000000017      27.439999999999998      52.919999999999995
   241   1      5.8800000000000017      29.399999999999999      50.959999999999994
   242   1      3.9199999999999942      27.439999999999998      54.879999999999995
   243   1      3.9199999999999942      29.399999999999999      56.839999999999989
   244   1      5.8800000000000017      27.439999999999998      56.839999999999989
   245   1      5.8800000000000017      29.399999999999999      54.879999999999995
   246   1      3.9199999999999942      27.439999999999998      58.799999999999997
   247   1      3.9199999999999942      29.399999999999999      60.759999999999991
   248   1      5.8800000000000017      27.439999999999998      60.759999999999991
   249   1      5.8800000000000017      29.399999999999999      58.799999999999997
   250   1      3.9199999999999942      27.439999999999998      62.719999999999999
   251   1      5.8800000000000017      27.439999999999998      64.679999999999993
   252   1      5.8800000000000017      29.399999999999999      62.719999999999999
   253   1      5.8800000000000017      27.439999999999998      68.599999999999994
   254   1      5.8800000000000017      29.399999999999999      66.640000000000001
   255   1      5.8800000000000017      29.399999999999999      70.560000000000002
   256   1      5.8800000000000017      31.359999999999999      17.640000000000001
   257   1      5.8800000000000017                   33.32                   15.68
   258   1      5.8800000000000017      31.359999999999999      21.559999999999999
   259   1      5.8800000000000017                   33.32      19.599999999999998
   260   1      3.9199999999999942      31.359999999999999      23.519999999999992
   261   1      3.9199999999999942                   33.32      25.479999999999997
   262   1      5.8800000000000017      31.359999999999999      25.479999999999997
   263   1      5.8800000000000017                   33.32      23.519999999999992
   264   1      3.9199999999999942      31.359999999999999      27.439999999999998
   265   1      3.9199999999999942                   33.32      29.399999999999999
   266   1      5.8800000000000017      31.359999999999999      29.399999999999999
   267   1      5.8800000000000017                   33.32      27.439999999999998
   268   1      3.9199999999999942      31.359999999999999      31.359999999999999
   269   1      3.9199999999999942                   33.32                   33.32
   270   1      5.8800000000000017      31.359999999999999                   33.32
   271   1      5.8800000000000017                   33.32      31.359999999999999
   272   1      3.9199999999999942      31.359999999999999      35.280000000000001
   273   1      3.9199999999999942                   33.32      37.240000000000002
   274   1      5.8800000000000017      31.359999999999999      37.240000000000002
   275   1      5.8800000000000017                   33.32      35.280000000000001
   276   1      3.9199999999999942      31.359999999999999      39.199999999999996
   277   1      3.9199999999999942                   33.32      41.159999999999997
   278   1      5.8800000000000017      31.359999999999999      41.159999999999997
   279   1      5.8800000000000017                   33.32      39.199999999999996
   280   1      3.9199999999999942      31.359999999999999      43.119999999999997
   281   1      3.9199999999999942                   33.32      45.079999999999998
   282   1      5.8800000000000017      31.359999999999999      45.079999999999998
   283   1      5.8800000000000017                   33.32      43.119999999999997
   284   1      3.9199999999999942      31.359999999999999      47.039999999999999
   285   1      3.9199999999999942                   33.32                      49
   286   1      5.8800000000000017      31.359999999999999                      49
   287   1      5.8800000000000017                   33.32      47.039999999999999
   288   1      3.9199999999999942      31.359999999999999      50.959999999999994
   289   1      3.9199999999999942                   33.32      52.919999999999995
   290   1      5.8800000000000017      31.359999999999999      52.919999999999995
   291   1      5.8800000000000017                   33.32      50.959999999999994
   292   1      3.9199999999999942      31.359999999999999      54.879999999999995
   293   1      3.9199999999999942                   33.32      56.839999999999989
   294   1      5.8800000000000017      31.359999999999999      56.839999999999989
   295   1      5.8800000000000017                   33.32      54.879999999999995
   296   1      3.9199999999999942      31.359999999999999      58.799999999999997
   297   1      3.9199999999999942                   33.32      60.759999999999991
   298   1      5.8800000000000017      31.359999999999999      60.759999999999991
   299   1      5.8800000000000017                   33.32      58.799999999999997
   300   1      3.9199999999999942      31.359999999999999      62.719999999999999
   301   1      5.8800000000000017      31.359999999999999      64.679999999999993
   302   1      5.8800000000000017                   33.32      62.719999999999999
   303   1      5.8800000000000017      31.359999999999999      68.599999999999994
   304   1      5.8800000000000017                   33.32      66.640000000000001
   305   1      5.8800000000000017                   33.32      70.560000000000002
   306   1      5.8800000000000017      35.280000000000001      17.640000000000001
   307   1      5.8800000000000017      37.240000000000002                   15.68
   308   1      5.8800000000000017      35.280000000000001      21.559999999999999
   309   1      5.8800000000000017      37.240000000000002      19.599999999999998
   310   1      3.9199999999999942      35.280000000000001      23.519999999999992
   311   1      3.9199999999999942      37.240000000000002      25.479999999999997
   312   1      5.8800000000000017      35.280000000000001      25.479999999999997
   313   1      5.8800000000000017      37.240000000000002      23.519999999999992
   314   1      3.9199999999999942      35.280000000000001      27.439999999999998
   315   1      3.9199999999999942      37.240000000000002      29.399999999999999
   316   1      5.8800000000000017      35.280000000000001      29.399999999999999
   317   1      5.8800000000000017      37.240000000000002      27.439999999999998
   318   1      3.9199999999999942      35.280000000000001      31.359999999999999
   319   1      3.9199999999999942      37.240000000000002                   33.32
   320   1      5.8800000000000017      35.280000000000001                   33.32
   321   1      5.8800000000000017      37.240000000000002      31.359999999999999
   322   1      3.9199999999999942      35.280000000000001      35.280000000000001
   323   1      3.9199999999999942      37.240000000000002      37.240000000000002
   324   1      5.8800000000000017      35.280000000000001      37.240000000000002
   325   1      5.8800000000000017      37.240000000000002      35.280000000000001
   326   1      3.9199999999999942      35.280000000000001      39.199999999999996
   327   1      3.9199999999999942      37.240000000000002      41.159999999999997
   328   1      5.8800000000000017      35.280000000000001      41.159999999999997
   329   1      5.8800000000000017      37.240000000000002      39.199999999999996
   330   1      3.9199999999999942      35.280000000000001      43.119999999999997
   331   1      3.9199999999999942      37.240000000000002      45.079999999999998
   332   1      5.8800000000000017      35.280000000000001      45.079999999999998
   333   1      5.8800000000000017      37.240000000000002      43.119999999999997
   334   1      3.9199999999999942      35.280000000000001      47.039999999999999
   335   1      3.9199999999999942      37.240000000000002                      49
   336   1      5.8800000000000017      35.280000000000001                      49
   337   1      5.8800000000000017      37.240000000000002      47.039999999999999
   338   1      3.9199999999999942      35.280000000000001      50.959999999999994
   339   1      3.9199999999999942      37.240000000000002      52.919999999999995
   340   1      5.8800000000000017      35.280000000000001      52.919999999999995
   341   1      5.8800000000000017      37.240000000000002      50.959999999999994
   342   1      3.9199999999999942      35.280000000000001      54.879999999999995
   343   1      3.9199999999999942      37.240000000000002      56.839999999999989
   344   1      5.8800000000000017      35.280000000000001      56.839999999999989
   345   1      5.8800000000000017      37.240000000000002      54.879999999999995
   346   1      3.9199999999999942      35.280000000000001      58.799999999999997
   347   1      3.9199999999999942      37.240000000000002      60.759999999999991
   348   1      5.8800000000000017      35.280000000000001      60.759999999999991
   349   1      5.8800000000000017      37.240000000000002      58.799999999999997
   350   1      3.9199999999999942      35.280000000000001      62.719999999999999
   351   1      5.8800000000000017      35.280000000000001      64.679999999999993
   352   1      5.8800000000000017      37.240000000000002      62.719999999999999
   353   1      5.8800000000000017      35.280000000000001      68.599999999999994
   354   1      5.8800000000000017      37.240000000000002      66.640000000000001
   355   1      5.8800000000000017      37.240000000000002      70.560000000000002
   356   1      5.8800000000000017      39.199999999999996      17.640000000000001
   357   1      5.8800000000000017      41.159999999999997                   15.68
   358   1      5.8800000000000017      39.199999999999996      21.559999999999999