model_files/Au/Au_30000/Au_322/data.Au_322_fcc_30187 (written by ASE) 

30187 	 atoms 
1  atom types
0.0                     122  xlo xhi
0.0                     122  ylo yhi
0.0                     122  zlo zhi


Atoms 

     1   1      2.0399999999999991      59.160000000000004       61.20000000000001
     2   1      2.0399999999999991       61.20000000000001      59.160000000000004
     3   1                       0       61.20000000000001       61.20000000000001
     4   1      2.0399999999999991       61.20000000000001      63.240000000000016
     5   1      2.0399999999999991      63.240000000000016       61.20000000000001
     6   1      6.1200000000000045                      51       61.20000000000001
     7   1      4.0799999999999983      55.080000000000013      59.160000000000004
     8   1      6.1200000000000045      53.040000000000006      59.160000000000004
     9   1      6.1200000000000045      55.080000000000013      57.120000000000012
    10   1      4.0799999999999983      53.040000000000006       61.20000000000001
    11   1      4.0799999999999983      55.080000000000013      63.240000000000016
    12   1      6.1200000000000045      53.040000000000006      63.240000000000016
    13   1      6.1200000000000045      55.080000000000013       61.20000000000001
    14   1      6.1200000000000045      55.080000000000013      65.280000000000001
    15   1      4.0799999999999983      59.160000000000004      55.080000000000013
    16   1      6.1200000000000045      57.120000000000012      55.080000000000013
    17   1      6.1200000000000045      59.160000000000004      53.040000000000006
    18   1      4.0799999999999983      57.120000000000012      57.120000000000012
    19   1      4.0799999999999983      59.160000000000004      59.160000000000004
    20   1      6.1200000000000045      57.120000000000012      59.160000000000004
    21   1      6.1200000000000045      59.160000000000004      57.120000000000012
    22   1      4.0799999999999983      57.120000000000012       61.20000000000001
    23   1      4.0799999999999983      59.160000000000004      63.240000000000016
    24   1      6.1200000000000045      57.120000000000012      63.240000000000016
    25   1      6.1200000000000045      59.160000000000004       61.20000000000001
    26   1      4.0799999999999983      57.120000000000012      65.280000000000001
    27   1      4.0799999999999983      59.160000000000004      67.320000000000007
    28   1      6.1200000000000045      57.120000000000012      67.320000000000007
    29   1      6.1200000000000045      59.160000000000004      65.280000000000001
    30   1      6.1200000000000045      59.160000000000004      69.359999999999999
    31   1      6.1200000000000045       61.20000000000001                      51
    32   1      4.0799999999999983       61.20000000000001      53.040000000000006
    33   1      4.0799999999999983      63.240000000000016      55.080000000000013
    34   1      6.1200000000000045       61.20000000000001      55.080000000000013
    35   1      6.1200000000000045      63.240000000000016      53.040000000000006
    36   1      4.0799999999999983       61.20000000000001      57.120000000000012
    37   1      4.0799999999999983      63.240000000000016      59.160000000000004
    38   1      6.1200000000000045       61.20000000000001      59.160000000000004
    39   1      6.1200000000000045      63.240000000000016      57.120000000000012
    40   1      4.0799999999999983       61.20000000000001       61.20000000000001
    41   1      4.0799999999999983      63.240000000000016      63.240000000000016
    42   1      6.1200000000000045       61.20000000000001      63.240000000000016
    43   1      6.1200000000000045      63.240000000000016       61.20000000000001
    44   1      4.0799999999999983       61.20000000000001      65.280000000000001
    45   1      4.0799999999999983      63.240000000000016      67.320000000000007
    46   1      6.1200000000000045       61.20000000000001      67.320000000000007
    47   1      6.1200000000000045      63.240000000000016      65.280000000000001
    48   1      4.0799999999999983       61.20000000000001      69.359999999999999
    49   1      6.1200000000000045       61.20000000000001      71.400000000000006
    50   1      6.1200000000000045      63.240000000000016      69.359999999999999
    51   1      6.1200000000000045      65.280000000000001      55.080000000000013
    52   1      4.0799999999999983      65.280000000000001      57.120000000000012
    53   1      4.0799999999999983      67.320000000000007      59.160000000000004
    54   1      6.1200000000000045      65.280000000000001      59.160000000000004
    55   1      6.1200000000000045      67.320000000000007      57.120000000000012
    56   1      4.0799999999999983      65.280000000000001       61.20000000000001
    57   1      4.0799999999999983      67.320000000000007      63.240000000000016
    58   1      6.1200000000000045      65.280000000000001      63.240000000000016
    59   1      6.1200000000000045      67.320000000000007       61.20000000000001
    60   1      4.0799999999999983      65.280000000000001      65.280000000000001
    61   1      6.1200000000000045      65.280000000000001      67.320000000000007
    62   1      6.1200000000000045      67.320000000000007      65.280000000000001
    63   1      6.1200000000000045      69.359999999999999      59.160000000000004
    64   1      4.0799999999999983      69.359999999999999       61.20000000000001
    65   1      6.1200000000000045      69.359999999999999      63.240000000000016
    66   1      6.1200000000000045      71.400000000000006       61.20000000000001
    67   1      10.200000000000003      46.920000000000002       61.20000000000001
    68   1      8.1600000000000055                      51      59.160000000000004
    69   1      10.200000000000003      48.960000000000001      59.160000000000004
    70   1      10.200000000000003                      51      57.120000000000012
    71   1      8.1600000000000055      48.960000000000001       61.20000000000001
    72   1      8.1600000000000055                      51      63.240000000000016
    73   1      10.200000000000003      48.960000000000001      63.240000000000016
    74   1      10.200000000000003                      51       61.20000000000001
    75   1      10.200000000000003                      51      65.280000000000001
    76   1      8.1600000000000055      55.080000000000013      55.080000000000013
    77   1      10.200000000000003      53.040000000000006      55.080000000000013
    78   1      10.200000000000003      55.080000000000013      53.040000000000006
    79   1      8.1600000000000055      53.040000000000006      57.120000000000012
    80   1      8.1600000000000055      55.080000000000013      59.160000000000004
    81   1      10.200000000000003      53.040000000000006      59.160000000000004
    82   1      10.200000000000003      55.080000000000013      57.120000000000012
    83   1      8.1600000000000055      53.040000000000006       61.20000000000001
    84   1      8.1600000000000055      55.080000000000013      63.240000000000016
    85   1      10.200000000000003      53.040000000000006      63.240000000000016
    86   1      10.200000000000003      55.080000000000013       61.20000000000001
    87   1      8.1600000000000055      53.040000000000006      65.280000000000001
    88   1      8.1600000000000055      55.080000000000013      67.320000000000007
    89   1      10.200000000000003      53.040000000000006      67.320000000000007
    90   1      10.200000000000003      55.080000000000013      65.280000000000001
    91   1      10.200000000000003      55.080000000000013      69.359999999999999
    92   1      8.1600000000000055      59.160000000000004                      51
    93   1      10.200000000000003      57.120000000000012                      51
    94   1      10.200000000000003      59.160000000000004      48.960000000000001
    95   1      8.1600000000000055      57.120000000000012      53.040000000000006
    96   1      8.1600000000000055      59.160000000000004      55.080000000000013
    97   1      10.200000000000003      57.120000000000012      55.080000000000013
    98   1      10.200000000000003      59.160000000000004      53.040000000000006
    99   1      8.1600000000000055      57.120000000000012      57.120000000000012
   100   1      8.1600000000000055      59.160000000000004      59.160000000000004
   101   1      10.200000000000003      57.120000000000012      59.160000000000004
   102   1      10.200000000000003      59.160000000000004      57.120000000000012
   103   1      8.1600000000000055      57.120000000000012       61.20000000000001
   104   1      8.1600000000000055      59.160000000000004      63.240000000000016
   105   1      10.200000000000003      57.120000000000012      63.240000000000016
   106   1      10.200000000000003      59.160000000000004       61.20000000000001
   107   1      8.1600000000000055      57.120000000000012      65.280000000000001
   108   1      8.1600000000000055      59.160000000000004      67.320000000000007
   109   1      10.200000000000003      57.120000000000012      67.320000000000007
   110   1      10.200000000000003      59.160000000000004      65.280000000000001
   111   1      8.1600000000000055      57.120000000000012      69.359999999999999
   112   1      8.1600000000000055      59.160000000000004      71.400000000000006
   113   1      10.200000000000003      57.120000000000012      71.400000000000006
   114   1      10.200000000000003      59.160000000000004      69.359999999999999
   115   1      10.200000000000003      59.160000000000004      73.439999999999998
   116   1      10.200000000000003       61.20000000000001      46.920000000000002
   117   1      8.1600000000000055       61.20000000000001      48.960000000000001
   118   1      8.1600000000000055      63.240000000000016                      51
   119   1      10.200000000000003       61.20000000000001                      51
   120   1      10.200000000000003      63.240000000000016      48.960000000000001
   121   1      8.1600000000000055       61.20000000000001      53.040000000000006
   122   1      8.1600000000000055      63.240000000000016      55.080000000000013
   123   1      10.200000000000003       61.20000000000001      55.080000000000013
   124   1      10.200000000000003      63.240000000000016      53.040000000000006
   125   1      8.1600000000000055       61.20000000000001      57.120000000000012
   126   1      8.1600000000000055      63.240000000000016      59.160000000000004
   127   1      10.200000000000003       61.20000000000001      59.160000000000004
   128   1      10.200000000000003      63.240000000000016      57.120000000000012
   129   1      8.1600000000000055       61.20000000000001       61.20000000000001
   130   1      8.1600000000000055      63.240000000000016      63.240000000000016
   131   1      10.200000000000003       61.20000000000001      63.240000000000016
   132   1      10.200000000000003      63.240000000000016       61.20000000000001
   133   1      8.1600000000000055       61.20000000000001      65.280000000000001
   134   1      8.1600000000000055      63.240000000000016      67.320000000000007
   135   1      10.200000000000003       61.20000000000001      67.320000000000007
   136   1      10.200000000000003      63.240000000000016      65.280000000000001
   137   1      8.1600000000000055       61.20000000000001      69.359999999999999
   138   1      8.1600000000000055      63.240000000000016      71.400000000000006
   139   1      10.200000000000003       61.20000000000001      71.400000000000006
   140   1      10.200000000000003      63.240000000000016      69.359999999999999
   141   1      8.1600000000000055       61.20000000000001      73.439999999999998
   142   1      10.200000000000003       61.20000000000001      75.480000000000004
   143   1      10.200000000000003      63.240000000000016      73.439999999999998
   144   1      10.200000000000003      65.280000000000001                      51
   145   1      8.1600000000000055      65.280000000000001      53.040000000000006
   146   1      8.1600000000000055      67.320000000000007      55.080000000000013
   147   1      10.200000000000003      65.280000000000001      55.080000000000013
   148   1      10.200000000000003      67.320000000000007      53.040000000000006
   149   1      8.1600000000000055      65.280000000000001      57.120000000000012
   150   1      8.1600000000000055      67.320000000000007      59.160000000000004
   151   1      10.200000000000003      65.280000000000001      59.160000000000004
   152   1      10.200000000000003      67.320000000000007      57.120000000000012
   153   1      8.1600000000000055      65.280000000000001       61.20000000000001
   154   1      8.1600000000000055      67.320000000000007      63.240000000000016
   155   1      10.200000000000003      65.280000000000001      63.240000000000016
   156   1      10.200000000000003      67.320000000000007       61.20000000000001
   157   1      8.1600000000000055      65.280000000000001      65.280000000000001
   158   1      8.1600000000000055      67.320000000000007      67.320000000000007
   159   1      10.200000000000003      65.280000000000001      67.320000000000007
   160   1      10.200000000000003      67.320000000000007      65.280000000000001
   161   1      8.1600000000000055      65.280000000000001      69.359999999999999
   162   1      10.200000000000003      65.280000000000001      71.400000000000006
   163   1      10.200000000000003      67.320000000000007      69.359999999999999
   164   1      10.200000000000003      69.359999999999999      55.080000000000013
   165   1      8.1600000000000055      69.359999999999999      57.120000000000012
   166   1      8.1600000000000055      71.400000000000006      59.160000000000004
   167   1      10.200000000000003      69.359999999999999      59.160000000000004
   168   1      10.200000000000003      71.400000000000006      57.120000000000012
   169   1      8.1600000000000055      69.359999999999999       61.20000000000001
   170   1      8.1600000000000055      71.400000000000006      63.240000000000016
   171   1      10.200000000000003      69.359999999999999      63.240000000000016
   172   1      10.200000000000003      71.400000000000006       61.20000000000001
   173   1      8.1600000000000055      69.359999999999999      65.280000000000001
   174   1      10.200000000000003      69.359999999999999      67.320000000000007
   175   1      10.200000000000003      71.400000000000006      65.280000000000001
   176   1      10.200000000000003      73.439999999999998      59.160000000000004
   177   1      8.1600000000000055      73.439999999999998       61.20000000000001
   178   1      10.200000000000003      73.439999999999998      63.240000000000016
   179   1      10.200000000000003      75.480000000000004       61.20000000000001
   180   1      14.280000000000003      38.759999999999998       61.20000000000001
   181   1      12.240000000000002      42.840000000000011      59.160000000000004
   182   1      14.280000000000003      40.800000000000004      59.160000000000004
   183   1      14.280000000000003      42.840000000000011      57.120000000000012
   184   1      12.240000000000002      40.800000000000004       61.20000000000001
   185   1      12.240000000000002      42.840000000000011      63.240000000000016
   186   1      14.280000000000003      40.800000000000004      63.240000000000016
   187   1      14.280000000000003      42.840000000000011       61.20000000000001
   188   1      14.280000000000003      42.840000000000011      65.280000000000001
   189   1      12.240000000000002      46.920000000000002      55.080000000000013
   190   1      14.280000000000003       44.88000000000001      55.080000000000013
   191   1      14.280000000000003      46.920000000000002      53.040000000000006
   192   1      12.240000000000002       44.88000000000001      57.120000000000012
   193   1      12.240000000000002      46.920000000000002      59.160000000000004
   194   1      14.280000000000003       44.88000000000001      59.160000000000004
   195   1      14.280000000000003      46.920000000000002      57.120000000000012
   196   1      12.240000000000002       44.88000000000001       61.20000000000001
   197   1      12.240000000000002      46.920000000000002      63.240000000000016
   198   1      14.280000000000003       44.88000000000001      63.240000000000016
   199   1      14.280000000000003      46.920000000000002       61.20000000000001
   200   1      12.240000000000002       44.88000000000001      65.280000000000001
   201   1      12.240000000000002      46.920000000000002      67.320000000000007
   202   1      14.280000000000003       44.88000000000001      67.320000000000007
   203   1      14.280000000000003      46.920000000000002      65.280000000000001
   204   1      14.280000000000003      46.920000000000002      69.359999999999999
   205   1      12.240000000000002                      51                      51
   206   1      14.280000000000003      48.960000000000001                      51
   207   1      14.280000000000003                      51      48.960000000000001
   208   1      12.240000000000002      48.960000000000001      53.040000000000006
   209   1      12.240000000000002                      51      55.080000000000013
   210   1      14.280000000000003      48.960000000000001      55.080000000000013
   211   1      14.280000000000003                      51      53.040000000000006
   212   1      12.240000000000002      48.960000000000001      57.120000000000012
   213   1      12.240000000000002                      51      59.160000000000004
   214   1      14.280000000000003      48.960000000000001      59.160000000000004
   215   1      14.280000000000003                      51      57.120000000000012
   216   1      12.240000000000002      48.960000000000001       61.20000000000001
   217   1      12.240000000000002                      51      63.240000000000016
   218   1      14.280000000000003      48.960000000000001      63.240000000000016
   219   1      14.280000000000003                      51       61.20000000000001
   220   1      12.240000000000002      48.960000000000001      65.280000000000001
   221   1      12.240000000000002                      51      67.320000000000007
   222   1      14.280000000000003      48.960000000000001      67.320000000000007
   223   1      14.280000000000003                      51      65.280000000000001
   224   1      12.240000000000002      48.960000000000001      69.359999999999999
   225   1      12.240000000000002                      51      71.400000000000006
   226   1      14.280000000000003      48.960000000000001      71.400000000000006
   227   1      14.280000000000003                      51      69.359999999999999
   228   1      14.280000000000003                      51      73.439999999999998
   229   1      12.240000000000002      55.080000000000013      46.920000000000002
   230   1      14.280000000000003      53.040000000000006      46.920000000000002
   231   1      14.280000000000003      55.080000000000013       44.88000000000001
   232   1      12.240000000000002      53.040000000000006      48.960000000000001
   233   1      12.240000000000002      55.080000000000013                      51
   234   1      14.280000000000003      53.040000000000006                      51
   235   1      14.280000000000003      55.080000000000013      48.960000000000001
   236   1      12.240000000000002      53.040000000000006      53.040000000000006
   237   1      12.240000000000002      55.080000000000013      55.080000000000013
   238   1      14.280000000000003      53.040000000000006      55.080000000000013
   239   1      14.280000000000003      55.080000000000013      53.040000000000006
   240   1      12.240000000000002      53.040000000000006      57.120000000000012
   241   1      12.240000000000002      55.080000000000013      59.160000000000004
   242   1      14.280000000000003      53.040000000000006      59.160000000000004
   243   1      14.280000000000003      55.080000000000013      57.120000000000012
   244   1      12.240000000000002      53.040000000000006       61.20000000000001
   245   1      12.240000000000002      55.080000000000013      63.240000000000016
   246   1      14.280000000000003      53.040000000000006      63.240000000000016
   247   1      14.280000000000003      55.080000000000013       61.20000000000001
   248   1      12.240000000000002      53.040000000000006      65.280000000000001
   249   1      12.240000000000002      55.080000000000013      67.320000000000007
   250   1      14.280000000000003      53.040000000000006      67.320000000000007
   251   1      14.280000000000003      55.080000000000013      65.280000000000001
   252   1      12.240000000000002      53.040000000000006      69.359999999999999
   253   1      12.240000000000002      55.080000000000013      71.400000000000006
   254   1      14.280000000000003      53.040000000000006      71.400000000000006
   255   1      14.280000000000003      55.080000000000013      69.359999999999999
   256   1      12.240000000000002      53.040000000000006      73.439999999999998
   257   1      12.240000000000002      55.080000000000013      75.480000000000004
   258   1      14.280000000000003      53.040000000000006      75.480000000000004
   259   1      14.280000000000003      55.080000000000013      73.439999999999998
   260   1      14.280000000000003      55.080000000000013      77.519999999999996
   261   1      12.240000000000002      59.160000000000004      42.840000000000011
   262   1      14.280000000000003      57.120000000000012      42.840000000000011
   263   1      14.280000000000003      59.160000000000004      40.800000000000004
   264   1      12.240000000000002      57.120000000000012       44.88000000000001
   265   1      12.240000000000002      59.160000000000004      46.920000000000002
   266   1      14.280000000000003      57.120000000000012      46.920000000000002
   267   1      14.280000000000003      59.160000000000004       44.88000000000001
   268   1      12.240000000000002      57.120000000000012      48.960000000000001
   269   1      12.240000000000002      59.160000000000004                      51
   270   1      14.280000000000003      57.120000000000012                      51
   271   1      14.280000000000003      59.160000000000004      48.960000000000001
   272   1      12.240000000000002      57.120000000000012      53.040000000000006
   273   1      12.240000000000002      59.160000000000004      55.080000000000013
   274   1      14.280000000000003      57.120000000000012      55.080000000000013
   275   1      14.280000000000003      59.160000000000004      53.040000000000006
   276   1      12.240000000000002      57.120000000000012      57.120000000000012
   277   1      12.240000000000002      59.160000000000004      59.160000000000004
   278   1      14.280000000000003      57.120000000000012      59.160000000000004
   279   1      14.280000000000003      59.160000000000004      57.120000000000012
   280   1      12.240000000000002      57.120000000000012       61.20000000000001
   281   1      12.240000000000002      59.160000000000004      63.240000000000016
   282   1      14.280000000000003      57.120000000000012      63.240000000000016
   283   1      14.280000000000003      59.160000000000004       61.20000000000001
   284   1      12.240000000000002      57.120000000000012      65.280000000000001
   285   1      12.240000000000002      59.160000000000004      67.320000000000007
   286   1      14.280000000000003      57.120000000000012      67.320000000000007
   287   1      14.280000000000003      59.160000000000004      65.280000000000001
   288   1      12.240000000000002      57.120000000000012      69.359999999999999
   289   1      12.240000000000002      59.160000000000004      71.400000000000006
   290   1      14.280000000000003      57.120000000000012      71.400000000000006
   291   1      14.280000000000003      59.160000000000004      69.359999999999999
   292   1      12.240000000000002      57.120000000000012      73.439999999999998
   293   1      12.240000000000002      59.160000000000004      75.480000000000004
   294   1      14.280000000000003      57.120000000000012      75.480000000000004
   295   1      14.280000000000003      59.160000000000004      73.439999999999998
   296   1      12.240000000000002      57.120000000000012      77.519999999999996
   297   1      12.240000000000002      59.160000000000004      79.560000000000002
   298   1      14.280000000000003      57.120000000000012      79.560000000000002
   299   1      14.280000000000003      59.160000000000004      77.519999999999996
   300   1      14.280000000000003      59.160000000000004      81.600000000000009
   301   1      14.280000000000003       61.20000000000001      38.759999999999998
   302   1      12.240000000000002       61.20000000000001      40.800000000000004
   303   1      12.240000000000002      63.240000000000016      42.840000000000011
   304   1      14.280000000000003       61.20000000000001      42.840000000000011
   305   1      14.280000000000003      63.240000000000016      40.800000000000004
   306   1      12.240000000000002       61.20000000000001       44.88000000000001
   307   1      12.240000000000002      63.240000000000016      46.920000000000002
   308   1      14.280000000000003       61.20000000000001      46.920000000000002
   309   1      14.280000000000003      63.240000000000016       44.88000000000001
   310   1      12.240000000000002       61.20000000000001      48.960000000000001
   311   1      12.240000000000002      63.240000000000016                      51
   312   1      14.280000000000003       61.20000000000001                      51
   313   1      14.280000000000003      63.240000000000016      48.960000000000001
   314   1      12.240000000000002       61.20000000000001      53.040000000000006
   315   1      12.240000000000002      63.240000000000016      55.080000000000013
   316   1      14.280000000000003       61.20000000000001      55.080000000000013
   317   1      14.280000000000003      63.240000000000016      53.040000000000006
   318   1      12.240000000000002       61.20000000000001      57.120000000000012
   319   1      12.240000000000002      63.240000000000016      59.160000000000004
   320   1      14.280000000000003       61.20000000000001      59.160000000000004
   321   1      14.280000000000003      63.240000000000016      57.120000000000012
   322   1      12.240000000000002       61.20000000000001       61.20000000000001
   323   1      12.240000000000002      63.240000000000016      63.240000000000016
   324   1      14.280000000000003       61.20000000000001      63.240000000000016
   325   1      14.280000000000003      63.240000000000016       61.20000000000001
   326   1      12.240000000000002       61.20000000000001      65.280000000000001
   327   1      12.240000000000002      63.240000000000016      67.320000000000007
   328   1      14.280000000000003       61.20000000000001      67.320000000000007
   329   1      14.280000000000003      63.240000000000016      65.280000000000001
   330   1      12.240000000000002       61.20000000000001      69.359999999999999
   331   1      12.240000000000002      63.240000000000016      71.400000000000006
   332   1      14.280000000000003       61.20000000000001      71.400000000000006
   333   1      14.280000000000003      63.240000000000016      69.359999999999999
   334   1      12.240000000000002       61.20000000000001      73.439999999999998
   335   1      12.240000000000002      63.240000000000016      75.480000000000004
   336   1      14.280000000000003       61.20000000000001      75.480000000000004
   337   1      14.280000000000003      63.240000000000016      73.439999999999998
   338   1      12.240000000000002       61.20000000000001      77.519999999999996
   339   1      12.240000000000002      63.240000000000016      79.560000000000002
   340   1      14.280000000000003       61.20000000000001      79.560000000000002
   341   1      14.280000000000003      63.240000000000016      77.519999999999996
   342   1      12.240000000000002       61.20000000000001      81.600000000000009
   343   1      14.280000000000003       61.20000000000001      83.640000000000015
   344   1      14.280000000000003      63.240000000000016      81.600000000000009
   345   1      14.280000000000003      65.280000000000001      42.840000000000011
   346   1      12.240000000000002      65.280000000000001       44.88000000000001
   347   1      12.240000000000002      67.320000000000007      46.920000000000002
   348   1      14.280000000000003      65.280000000000001      46.920000000000002
   349   1      14.280000000000003      67.320000000000007       44.88000000000001
   350   1      12.240000000000002      65.280000000000001      48.960000000000001
   351   1      12.240000000000002      67.320000000000007                      51
   352   1      14.280000000000003      65.280000000000001                      51
   353   1      14.280000000000003      67.320000000000007      48.960000000000001
   354   1      12.240000000000002      65.280000000000001      53.040000000000006
   355   1      12.240000000000002      67.320000000000007      55.080000000000013
   356   1      14.280000000000003      65.280000000000001      55.080000000000013
   357   1      14.280000000000003      67.320000000000007      53.040000000000006
   358   1      12.240000000000002      65.280000000000001      57.120000000000012