model_files/NiFeCrCoAl/NiFeCrCoAl_30000/NiFeCrCoAl_542/NiFeCrCoAl_542_fcc_29823_temp.data (written by ASE) 

29823 	 atoms 
5  atom types
0.0                     108  xlo xhi
0.0                     108  ylo yhi
0.0                     108  zlo zhi


Atoms 

     1   1      1.8049999999999997      52.344999999999999      54.149999999999999
     2   1      1.8049999999999997      54.149999999999999      52.344999999999999
     3   1                       0      54.149999999999999      54.149999999999999
     4   1      1.8049999999999997      54.149999999999999      55.954999999999991
     5   1      1.8049999999999997      55.954999999999991      54.149999999999999
     6   1      3.6099999999999994      48.734999999999999      52.344999999999999
     7   1      5.4149999999999991      46.929999999999993      52.344999999999999
     8   1      5.4149999999999991      48.734999999999999      50.539999999999992
     9   1      3.6099999999999994      48.734999999999999      55.954999999999991
    10   1      5.4149999999999991      46.929999999999993      55.954999999999991
    11   1      5.4149999999999991      48.734999999999999      54.149999999999999
    12   1      5.4149999999999991      48.734999999999999      57.759999999999991
    13   1      3.6099999999999994      52.344999999999999      48.734999999999999
    14   1      5.4149999999999991      50.539999999999992      48.734999999999999
    15   1      5.4149999999999991      52.344999999999999      46.929999999999993
    16   1      3.6099999999999994      50.539999999999992      50.539999999999992
    17   1      3.6099999999999994      52.344999999999999      52.344999999999999
    18   1      5.4149999999999991      50.539999999999992      52.344999999999999
    19   1      5.4149999999999991      52.344999999999999      50.539999999999992
    20   1      3.6099999999999994      50.539999999999992      54.149999999999999
    21   1      3.6099999999999994      52.344999999999999      55.954999999999991
    22   1      5.4149999999999991      50.539999999999992      55.954999999999991
    23   1      5.4149999999999991      52.344999999999999      54.149999999999999
    24   1      3.6099999999999994      50.539999999999992      57.759999999999991
    25   1      3.6099999999999994      52.344999999999999      59.564999999999998
    26   1      5.4149999999999991      50.539999999999992      59.564999999999998
    27   1      5.4149999999999991      52.344999999999999      57.759999999999991
    28   1      5.4149999999999991      52.344999999999999      61.369999999999997
    29   1      3.6099999999999994      55.954999999999991      48.734999999999999
    30   1      5.4149999999999991      54.149999999999999      48.734999999999999
    31   1      5.4149999999999991      55.954999999999991      46.929999999999993
    32   1      3.6099999999999994      54.149999999999999      50.539999999999992
    33   1      3.6099999999999994      55.954999999999991      52.344999999999999
    34   1      5.4149999999999991      54.149999999999999      52.344999999999999
    35   1      5.4149999999999991      55.954999999999991      50.539999999999992
    36   1      3.6099999999999994      54.149999999999999      54.149999999999999
    37   1      3.6099999999999994      55.954999999999991      55.954999999999991
    38   1      5.4149999999999991      54.149999999999999      55.954999999999991
    39   1      5.4149999999999991      55.954999999999991      54.149999999999999
    40   1      3.6099999999999994      54.149999999999999      57.759999999999991
    41   1      3.6099999999999994      55.954999999999991      59.564999999999998
    42   1      5.4149999999999991      54.149999999999999      59.564999999999998
    43   1      5.4149999999999991      55.954999999999991      57.759999999999991
    44   1      5.4149999999999991      55.954999999999991      61.369999999999997
    45   1      5.4149999999999991      57.759999999999991      48.734999999999999
    46   1      3.6099999999999994      57.759999999999991      50.539999999999992
    47   1      3.6099999999999994      59.564999999999998      52.344999999999999
    48   1      5.4149999999999991      57.759999999999991      52.344999999999999
    49   1      5.4149999999999991      59.564999999999998      50.539999999999992
    50   1      3.6099999999999994      57.759999999999991      54.149999999999999
    51   1      3.6099999999999994      59.564999999999998      55.954999999999991
    52   1      5.4149999999999991      57.759999999999991      55.954999999999991
    53   1      5.4149999999999991      59.564999999999998      54.149999999999999
    54   1      3.6099999999999994      57.759999999999991      57.759999999999991
    55   1      5.4149999999999991      57.759999999999991      59.564999999999998
    56   1      5.4149999999999991      59.564999999999998      57.759999999999991
    57   1      5.4149999999999991      61.369999999999997      52.344999999999999
    58   1      5.4149999999999991      61.369999999999997      55.954999999999991
    59   1      9.0249999999999986      41.515000000000001      54.149999999999999
    60   1      9.0249999999999986                  45.125      46.929999999999993
    61   1      7.2199999999999989                  45.125      52.344999999999999
    62   1      9.0249999999999986                   43.32      52.344999999999999
    63   1      9.0249999999999986                  45.125      50.539999999999992
    64   1      7.2199999999999989                   43.32      54.149999999999999
    65   1      7.2199999999999989                  45.125      55.954999999999991
    66   1      9.0249999999999986                   43.32      55.954999999999991
    67   1      9.0249999999999986                  45.125      54.149999999999999
    68   1      9.0249999999999986                  45.125      57.759999999999991
    69   1      9.0249999999999986                  45.125      61.369999999999997
    70   1      9.0249999999999986      46.929999999999993                  45.125
    71   1      7.2199999999999989      46.929999999999993      46.929999999999993
    72   1      7.2199999999999989      48.734999999999999      48.734999999999999
    73   1      9.0249999999999986      46.929999999999993      48.734999999999999
    74   1      9.0249999999999986      48.734999999999999      46.929999999999993
    75   1      7.2199999999999989      46.929999999999993      50.539999999999992
    76   1      7.2199999999999989      48.734999999999999      52.344999999999999
    77   1      9.0249999999999986      46.929999999999993      52.344999999999999
    78   1      9.0249999999999986      48.734999999999999      50.539999999999992
    79   1      7.2199999999999989      46.929999999999993      54.149999999999999
    80   1      7.2199999999999989      48.734999999999999      55.954999999999991
    81   1      9.0249999999999986      46.929999999999993      55.954999999999991
    82   1      9.0249999999999986      48.734999999999999      54.149999999999999
    83   1      7.2199999999999989      46.929999999999993      57.759999999999991
    84   1      7.2199999999999989      48.734999999999999      59.564999999999998
    85   1      9.0249999999999986      46.929999999999993      59.564999999999998
    86   1      9.0249999999999986      48.734999999999999      57.759999999999991
    87   1      7.2199999999999989      46.929999999999993      61.369999999999997
    88   1      9.0249999999999986      46.929999999999993      63.175000000000011
    89   1      9.0249999999999986      48.734999999999999      61.369999999999997
    90   1      7.2199999999999989      52.344999999999999                  45.125
    91   1      9.0249999999999986      50.539999999999992                  45.125
    92   1      9.0249999999999986      52.344999999999999                   43.32
    93   1      7.2199999999999989      50.539999999999992      46.929999999999993
    94   1      7.2199999999999989      52.344999999999999      48.734999999999999
    95   1      9.0249999999999986      50.539999999999992      48.734999999999999
    96   1      9.0249999999999986      52.344999999999999      46.929999999999993
    97   1      7.2199999999999989      50.539999999999992      50.539999999999992
    98   1      7.2199999999999989      52.344999999999999      52.344999999999999
    99   1      9.0249999999999986      50.539999999999992      52.344999999999999
   100   1      9.0249999999999986      52.344999999999999      50.539999999999992
   101   1      7.2199999999999989      50.539999999999992      54.149999999999999
   102   1      7.2199999999999989      52.344999999999999      55.954999999999991
   103   1      9.0249999999999986      50.539999999999992      55.954999999999991
   104   1      9.0249999999999986      52.344999999999999      54.149999999999999
   105   1      7.2199999999999989      50.539999999999992      57.759999999999991
   106   1      7.2199999999999989      52.344999999999999      59.564999999999998
   107   1      9.0249999999999986      50.539999999999992      59.564999999999998
   108   1      9.0249999999999986      52.344999999999999      57.759999999999991
   109   1      7.2199999999999989      50.539999999999992      61.369999999999997
   110   1      7.2199999999999989      52.344999999999999      63.175000000000011
   111   1      9.0249999999999986      50.539999999999992      63.175000000000011
   112   1      9.0249999999999986      52.344999999999999      61.369999999999997
   113   1      9.0249999999999986      52.344999999999999      64.980000000000004
   114   1      9.0249999999999986      54.149999999999999      41.515000000000001
   115   1      7.2199999999999989      54.149999999999999                   43.32
   116   1      7.2199999999999989      55.954999999999991                  45.125
   117   1      9.0249999999999986      54.149999999999999                  45.125
   118   1      9.0249999999999986      55.954999999999991                   43.32
   119   1      7.2199999999999989      54.149999999999999      46.929999999999993
   120   1      7.2199999999999989      55.954999999999991      48.734999999999999
   121   1      9.0249999999999986      54.149999999999999      48.734999999999999
   122   1      9.0249999999999986      55.954999999999991      46.929999999999993
   123   1      7.2199999999999989      54.149999999999999      50.539999999999992
   124   1      7.2199999999999989      55.954999999999991      52.344999999999999
   125   1      9.0249999999999986      54.149999999999999      52.344999999999999
   126   1      9.0249999999999986      55.954999999999991      50.539999999999992
   127   1      7.2199999999999989      54.149999999999999      54.149999999999999
   128   1      7.2199999999999989      55.954999999999991      55.954999999999991
   129   1      9.0249999999999986      54.149999999999999      55.954999999999991
   130   1      9.0249999999999986      55.954999999999991      54.149999999999999
   131   1      7.2199999999999989      54.149999999999999      57.759999999999991
   132   1      7.2199999999999989      55.954999999999991      59.564999999999998
   133   1      9.0249999999999986      54.149999999999999      59.564999999999998
   134   1      9.0249999999999986      55.954999999999991      57.759999999999991
   135   1      7.2199999999999989      54.149999999999999      61.369999999999997
   136   1      7.2199999999999989      55.954999999999991      63.175000000000011
   137   1      9.0249999999999986      54.149999999999999      63.175000000000011
   138   1      9.0249999999999986      55.954999999999991      61.369999999999997
   139   1      7.2199999999999989      54.149999999999999      64.980000000000004
   140   1      9.0249999999999986      54.149999999999999      66.785000000000011
   141   1      9.0249999999999986      55.954999999999991      64.980000000000004
   142   1      9.0249999999999986      57.759999999999991                  45.125
   143   1      7.2199999999999989      57.759999999999991      46.929999999999993
   144   1      7.2199999999999989      59.564999999999998      48.734999999999999
   145   1      9.0249999999999986      57.759999999999991      48.734999999999999
   146   1      9.0249999999999986      59.564999999999998      46.929999999999993
   147   1      7.2199999999999989      57.759999999999991      50.539999999999992
   148   1      7.2199999999999989      59.564999999999998      52.344999999999999
   149   1      9.0249999999999986      57.759999999999991      52.344999999999999
   150   1      9.0249999999999986      59.564999999999998      50.539999999999992
   151   1      7.2199999999999989      57.759999999999991      54.149999999999999
   152   1      7.2199999999999989      59.564999999999998      55.954999999999991
   153   1      9.0249999999999986      57.759999999999991      55.954999999999991
   154   1      9.0249999999999986      59.564999999999998      54.149999999999999
   155   1      7.2199999999999989      57.759999999999991      57.759999999999991
   156   1      7.2199999999999989      59.564999999999998      59.564999999999998
   157   1      9.0249999999999986      57.759999999999991      59.564999999999998
   158   1      9.0249999999999986      59.564999999999998      57.759999999999991
   159   1      7.2199999999999989      57.759999999999991      61.369999999999997
   160   1      9.0249999999999986      57.759999999999991      63.175000000000011
   161   1      9.0249999999999986      59.564999999999998      61.369999999999997
   162   1      9.0249999999999986      61.369999999999997                  45.125
   163   1      7.2199999999999989      61.369999999999997      46.929999999999993
   164   1      9.0249999999999986      61.369999999999997      48.734999999999999
   165   1      9.0249999999999986      63.175000000000011      46.929999999999993
   166   1      7.2199999999999989      61.369999999999997      50.539999999999992
   167   1      7.2199999999999989      63.175000000000011      52.344999999999999
   168   1      9.0249999999999986      61.369999999999997      52.344999999999999
   169   1      9.0249999999999986      63.175000000000011      50.539999999999992
   170   1      7.2199999999999989      61.369999999999997      54.149999999999999
   171   1      7.2199999999999989      63.175000000000011      55.954999999999991
   172   1      9.0249999999999986      61.369999999999997      55.954999999999991
   173   1      9.0249999999999986      63.175000000000011      54.149999999999999
   174   1      7.2199999999999989      61.369999999999997      57.759999999999991
   175   1      9.0249999999999986      61.369999999999997      59.564999999999998
   176   1      9.0249999999999986      63.175000000000011      57.759999999999991
   177   1      7.2199999999999989      61.369999999999997      61.369999999999997
   178   1      9.0249999999999986      61.369999999999997      63.175000000000011
   179   1      9.0249999999999986      63.175000000000011      61.369999999999997
   180   1      9.0249999999999986      64.980000000000004      52.344999999999999
   181   1      7.2199999999999989      64.980000000000004      54.149999999999999
   182   1      9.0249999999999986      64.980000000000004      55.954999999999991
   183   1      9.0249999999999986      66.785000000000011      54.149999999999999
   184   1      12.634999999999998      37.905000000000001      54.149999999999999
   185   1      10.829999999999998      41.515000000000001      48.734999999999999
   186   1      12.634999999999998      39.710000000000001      48.734999999999999
   187   1      12.634999999999998      41.515000000000001      46.929999999999993
   188   1      10.829999999999998      41.515000000000001      52.344999999999999
   189   1      12.634999999999998      39.710000000000001      52.344999999999999
   190   1      12.634999999999998      41.515000000000001      50.539999999999992
   191   1      10.829999999999998      39.710000000000001      54.149999999999999
   192   1      10.829999999999998      41.515000000000001      55.954999999999991
   193   1      12.634999999999998      39.710000000000001      55.954999999999991
   194   1      12.634999999999998      41.515000000000001      54.149999999999999
   195   1      10.829999999999998      41.515000000000001      59.564999999999998
   196   1      12.634999999999998      39.710000000000001      59.564999999999998
   197   1      12.634999999999998      41.515000000000001      57.759999999999991
   198   1      12.634999999999998      41.515000000000001      61.369999999999997
   199   1      10.829999999999998                  45.125                  45.125
   200   1      12.634999999999998                   43.32                  45.125
   201   1      12.634999999999998                  45.125                   43.32
   202   1      10.829999999999998                   43.32      46.929999999999993
   203   1      10.829999999999998                  45.125      48.734999999999999
   204   1      12.634999999999998                   43.32      48.734999999999999
   205   1      12.634999999999998                  45.125      46.929999999999993
   206   1      10.829999999999998                   43.32      50.539999999999992
   207   1      10.829999999999998                  45.125      52.344999999999999
   208   1      12.634999999999998                   43.32      52.344999999999999
   209   1      12.634999999999998                  45.125      50.539999999999992
   210   1      10.829999999999998                   43.32      54.149999999999999
   211   1      10.829999999999998                  45.125      55.954999999999991
   212   1      12.634999999999998                   43.32      55.954999999999991
   213   1      12.634999999999998                  45.125      54.149999999999999
   214   1      10.829999999999998                   43.32      57.759999999999991
   215   1      10.829999999999998                  45.125      59.564999999999998
   216   1      12.634999999999998                   43.32      59.564999999999998
   217   1      12.634999999999998                  45.125      57.759999999999991
   218   1      10.829999999999998                   43.32      61.369999999999997
   219   1      10.829999999999998                  45.125      63.175000000000011
   220   1      12.634999999999998                   43.32      63.175000000000011
   221   1      12.634999999999998                  45.125      61.369999999999997
   222   1      12.634999999999998                  45.125      64.980000000000004
   223   1      10.829999999999998      48.734999999999999      41.515000000000001
   224   1      12.634999999999998      46.929999999999993      41.515000000000001
   225   1      12.634999999999998      48.734999999999999      39.710000000000001
   226   1      10.829999999999998      46.929999999999993                   43.32
   227   1      10.829999999999998      48.734999999999999                  45.125
   228   1      12.634999999999998      46.929999999999993                  45.125
   229   1      12.634999999999998      48.734999999999999                   43.32
   230   1      10.829999999999998      46.929999999999993      46.929999999999993
   231   1      10.829999999999998      48.734999999999999      48.734999999999999
   232   1      12.634999999999998      46.929999999999993      48.734999999999999
   233   1      12.634999999999998      48.734999999999999      46.929999999999993
   234   1      10.829999999999998      46.929999999999993      50.539999999999992
   235   1      10.829999999999998      48.734999999999999      52.344999999999999
   236   1      12.634999999999998      46.929999999999993      52.344999999999999
   237   1      12.634999999999998      48.734999999999999      50.539999999999992
   238   1      10.829999999999998      46.929999999999993      54.149999999999999
   239   1      10.829999999999998      48.734999999999999      55.954999999999991
   240   1      12.634999999999998      46.929999999999993      55.954999999999991
   241   1      12.634999999999998      48.734999999999999      54.149999999999999
   242   1      10.829999999999998      46.929999999999993      57.759999999999991
   243   1      10.829999999999998      48.734999999999999      59.564999999999998
   244   1      12.634999999999998      46.929999999999993      59.564999999999998
   245   1      12.634999999999998      48.734999999999999      57.759999999999991
   246   1      10.829999999999998      46.929999999999993      61.369999999999997
   247   1      10.829999999999998      48.734999999999999      63.175000000000011
   248   1      12.634999999999998      46.929999999999993      63.175000000000011
   249   1      12.634999999999998      48.734999999999999      61.369999999999997
   250   1      10.829999999999998      46.929999999999993      64.980000000000004
   251   1      10.829999999999998      48.734999999999999      66.785000000000011
   252   1      12.634999999999998      46.929999999999993      66.785000000000011
   253   1      12.634999999999998      48.734999999999999      64.980000000000004
   254   1      12.634999999999998      48.734999999999999      68.589999999999989
   255   1      10.829999999999998      52.344999999999999      41.515000000000001
   256   1      12.634999999999998      50.539999999999992      41.515000000000001
   257   1      12.634999999999998      52.344999999999999      39.710000000000001
   258   1      10.829999999999998      50.539999999999992                   43.32
   259   1      10.829999999999998      52.344999999999999                  45.125
   260   1      12.634999999999998      50.539999999999992                  45.125
   261   1      12.634999999999998      52.344999999999999                   43.32
   262   1      10.829999999999998      50.539999999999992      46.929999999999993
   263   1      10.829999999999998      52.344999999999999      48.734999999999999
   264   1      12.634999999999998      50.539999999999992      48.734999999999999
   265   1      12.634999999999998      52.344999999999999      46.929999999999993
   266   1      10.829999999999998      50.539999999999992      50.539999999999992
   267   1      10.829999999999998      52.344999999999999      52.344999999999999
   268   1      12.634999999999998      50.539999999999992      52.344999999999999
   269   1      12.634999999999998      52.344999999999999      50.539999999999992
   270   1      10.829999999999998      50.539999999999992      54.149999999999999
   271   1      10.829999999999998      52.344999999999999      55.954999999999991
   272   1      12.634999999999998      50.539999999999992      55.954999999999991
   273   1      12.634999999999998      52.344999999999999      54.149999999999999
   274   1      10.829999999999998      50.539999999999992      57.759999999999991
   275   1      10.829999999999998      52.344999999999999      59.564999999999998
   276   1      12.634999999999998      50.539999999999992      59.564999999999998
   277   1      12.634999999999998      52.344999999999999      57.759999999999991
   278   1      10.829999999999998      50.539999999999992      61.369999999999997
   279   1      10.829999999999998      52.344999999999999      63.175000000000011
   280   1      12.634999999999998      50.539999999999992      63.175000000000011
   281   1      12.634999999999998      52.344999999999999      61.369999999999997
   282   1      10.829999999999998      50.539999999999992      64.980000000000004
   283   1      10.829999999999998      52.344999999999999      66.785000000000011
   284   1      12.634999999999998      50.539999999999992      66.785000000000011
   285   1      12.634999999999998      52.344999999999999      64.980000000000004
   286   1      12.634999999999998      52.344999999999999      68.589999999999989
   287   1      12.634999999999998      54.149999999999999      37.905000000000001
   288   1      10.829999999999998      54.149999999999999      39.710000000000001
   289   1      10.829999999999998      55.954999999999991      41.515000000000001
   290   1      12.634999999999998      54.149999999999999      41.515000000000001
   291   1      12.634999999999998      55.954999999999991      39.710000000000001
   292   1      10.829999999999998      54.149999999999999                   43.32
   293   1      10.829999999999998      55.954999999999991                  45.125
   294   1      12.634999999999998      54.149999999999999                  45.125
   295   1      12.634999999999998      55.954999999999991                   43.32
   296   1      10.829999999999998      54.149999999999999      46.929999999999993
   297   1      10.829999999999998      55.954999999999991      48.734999999999999
   298   1      12.634999999999998      54.149999999999999      48.734999999999999
   299   1      12.634999999999998      55.954999999999991      46.929999999999993
   300   1      10.829999999999998      54.149999999999999      50.539999999999992
   301   1      10.829999999999998      55.954999999999991      52.344999999999999
   302   1      12.634999999999998      54.149999999999999      52.344999999999999
   303   1      12.634999999999998      55.954999999999991      50.539999999999992
   304   1      10.829999999999998      54.149999999999999      54.149999999999999
   305   1      10.829999999999998      55.954999999999991      55.954999999999991
   306   1      12.634999999999998      54.149999999999999      55.954999999999991
   307   1      12.634999999999998      55.954999999999991      54.149999999999999
   308   1      10.829999999999998      54.149999999999999      57.759999999999991
   309   1      10.829999999999998      55.954999999999991      59.564999999999998
   310   1      12.634999999999998      54.149999999999999      59.564999999999998
   311   1      12.634999999999998      55.954999999999991      57.759999999999991
   312   1      10.829999999999998      54.149999999999999      61.369999999999997
   313   1      10.829999999999998      55.954999999999991      63.175000000000011
   314   1      12.634999999999998      54.149999999999999      63.175000000000011
   315   1      12.634999999999998      55.954999999999991      61.369999999999997
   316   1      10.829999999999998      54.149999999999999      64.980000000000004
   317   1      10.829999999999998      55.954999999999991      66.785000000000011
   318   1      12.634999999999998      54.149999999999999      66.785000000000011
   319   1      12.634999999999998      55.954999999999991      64.980000000000004
   320   1      10.829999999999998      54.149999999999999      68.589999999999989
   321   1      12.634999999999998      54.149999999999999       70.39500000000001
   322   1      12.634999999999998      55.954999999999991      68.589999999999989
   323   1      10.829999999999998      59.564999999999998      41.515000000000001
   324   1      12.634999999999998      57.759999999999991      41.515000000000001
   325   1      12.634999999999998      59.564999999999998      39.710000000000001
   326   1      10.829999999999998      57.759999999999991                   43.32
   327   1      10.829999999999998      59.564999999999998                  45.125
   328   1      12.634999999999998      57.759999999999991                  45.125
   329   1      12.634999999999998      59.564999999999998                   43.32
   330   1      10.829999999999998      57.759999999999991      46.929999999999993
   331   1      10.829999999999998      59.564999999999998      48.734999999999999
   332   1      12.634999999999998      57.759999999999991      48.734999999999999
   333   1      12.634999999999998      59.564999999999998      46.929999999999993
   334   1      10.829999999999998      57.759999999999991      50.539999999999992
   335   1      10.829999999999998      59.564999999999998      52.344999999999999
   336   1      12.634999999999998      57.759999999999991      52.344999999999999
   337   1      12.634999999999998      59.564999999999998      50.539999999999992
   338   1      10.829999999999998      57.759999999999991      54.149999999999999
   339   1      10.829999999999998      59.564999999999998      55.954999999999991
   340   1      12.634999999999998      57.759999999999991      55.954999999999991
   341   1      12.634999999999998      59.564999999999998      54.149999999999999
   342   1      10.829999999999998      57.759999999999991      57.759999999999991
   343   1      10.829999999999998      59.564999999999998      59.564999999999998
   344   1      12.634999999999998      57.759999999999991      59.564999999999998
   345   1      12.634999999999998      59.564999999999998      57.759999999999991
   346   1      10.829999999999998      57.759999999999991      61.369999999999997
   347   1      10.829999999999998      59.564999999999998      63.175000000000011
   348   1      12.634999999999998      57.759999999999991      63.175000000000011
   349   1      12.634999999999998      59.564999999999998      61.369999999999997
   350   1      10.829999999999998      57.759999999999991      64.980000000000004
   351   1      10.829999999999998      59.564999999999998      66.785000000000011
   352   1      12.634999999999998      57.759999999999991      66.785000000000011
   353   1      12.634999999999998      59.564999999999998      64.980000000000004
   354   1      12.634999999999998      59.564999999999998      68.589999999999989
   355   1      12.634999999999998      61.369999999999997      41.515000000000001
   356   1      10.829999999999998      61.369999999999997                   43.32
   357   1      10.829999999999998      63.175000000000011                  45.125
   358   1      12.634999999999998      61.369999999999997                  45.125