model_files/Fe/Fe_30000/Fe_554/data.Fe_554_bcc_29683 (written by ASE) 

29683 	 atoms 
1  atom types
0.0                      99  xlo xhi
0.0                      99  ylo yhi
0.0                      99  zlo zhi


Atoms 

     1   1      1.4349999999999954      47.354999999999997      48.789999999999992
     2   1      1.4349999999999954      48.789999999999992      47.354999999999997
     3   1      98.999999999999986      48.789999999999992      48.789999999999992
     4   1      1.4349999999999954      48.789999999999992      50.224999999999994
     5   1      1.4349999999999954      50.224999999999994      48.789999999999992
     6   1      4.3049999999999926      44.484999999999999      48.789999999999992
     7   1      2.8699999999999974      47.354999999999997      47.354999999999997
     8   1      4.3049999999999926      45.919999999999995      47.354999999999997
     9   1      4.3049999999999926      47.354999999999997      45.919999999999995
    10   1      2.8699999999999974      45.919999999999995      48.789999999999992
    11   1      2.8699999999999974      47.354999999999997      50.224999999999994
    12   1      4.3049999999999926      45.919999999999995      50.224999999999994
    13   1      4.3049999999999926      47.354999999999997      48.789999999999992
    14   1      4.3049999999999926      47.354999999999997      51.659999999999989
    15   1      4.3049999999999926      48.789999999999992      44.484999999999999
    16   1      2.8699999999999974      48.789999999999992      45.919999999999995
    17   1      2.8699999999999974      50.224999999999994      47.354999999999997
    18   1      4.3049999999999926      48.789999999999992      47.354999999999997
    19   1      4.3049999999999926      50.224999999999994      45.919999999999995
    20   1      2.8699999999999974      48.789999999999992      48.789999999999992
    21   1      2.8699999999999974      50.224999999999994      50.224999999999994
    22   1      4.3049999999999926      48.789999999999992      50.224999999999994
    23   1      4.3049999999999926      50.224999999999994      48.789999999999992
    24   1      2.8699999999999974      48.789999999999992      51.659999999999989
    25   1      4.3049999999999926      48.789999999999992      53.094999999999999
    26   1      4.3049999999999926      50.224999999999994      51.659999999999989
    27   1      4.3049999999999926      51.659999999999989      47.354999999999997
    28   1      2.8699999999999974      51.659999999999989      48.789999999999992
    29   1      4.3049999999999926      51.659999999999989      50.224999999999994
    30   1      4.3049999999999926      53.094999999999999      48.789999999999992
    31   1       7.174999999999998      41.614999999999995      48.789999999999992
    32   1      5.7399999999999949      44.484999999999999      47.354999999999997
    33   1       7.174999999999998       43.04999999999999      47.354999999999997
    34   1       7.174999999999998      44.484999999999999      45.919999999999995
    35   1      5.7399999999999949       43.04999999999999      48.789999999999992
    36   1      5.7399999999999949      44.484999999999999      50.224999999999994
    37   1       7.174999999999998       43.04999999999999      50.224999999999994
    38   1       7.174999999999998      44.484999999999999      48.789999999999992
    39   1       7.174999999999998      44.484999999999999      51.659999999999989
    40   1      5.7399999999999949      47.354999999999997      44.484999999999999
    41   1       7.174999999999998      45.919999999999995      44.484999999999999
    42   1       7.174999999999998      47.354999999999997       43.04999999999999
    43   1      5.7399999999999949      45.919999999999995      45.919999999999995
    44   1      5.7399999999999949      47.354999999999997      47.354999999999997
    45   1       7.174999999999998      45.919999999999995      47.354999999999997
    46   1       7.174999999999998      47.354999999999997      45.919999999999995
    47   1      5.7399999999999949      45.919999999999995      48.789999999999992
    48   1      5.7399999999999949      47.354999999999997      50.224999999999994
    49   1       7.174999999999998      45.919999999999995      50.224999999999994
    50   1       7.174999999999998      47.354999999999997      48.789999999999992
    51   1      5.7399999999999949      45.919999999999995      51.659999999999989
    52   1      5.7399999999999949      47.354999999999997      53.094999999999999
    53   1       7.174999999999998      45.919999999999995      53.094999999999999
    54   1       7.174999999999998      47.354999999999997      51.659999999999989
    55   1       7.174999999999998      47.354999999999997      54.529999999999994
    56   1       7.174999999999998      48.789999999999992      41.614999999999995
    57   1      5.7399999999999949      48.789999999999992       43.04999999999999
    58   1      5.7399999999999949      50.224999999999994      44.484999999999999
    59   1       7.174999999999998      48.789999999999992      44.484999999999999
    60   1       7.174999999999998      50.224999999999994       43.04999999999999
    61   1      5.7399999999999949      48.789999999999992      45.919999999999995
    62   1      5.7399999999999949      50.224999999999994      47.354999999999997
    63   1       7.174999999999998      48.789999999999992      47.354999999999997
    64   1       7.174999999999998      50.224999999999994      45.919999999999995
    65   1      5.7399999999999949      48.789999999999992      48.789999999999992
    66   1      5.7399999999999949      50.224999999999994      50.224999999999994
    67   1       7.174999999999998      48.789999999999992      50.224999999999994
    68   1       7.174999999999998      50.224999999999994      48.789999999999992
    69   1      5.7399999999999949      48.789999999999992      51.659999999999989
    70   1      5.7399999999999949      50.224999999999994      53.094999999999999
    71   1       7.174999999999998      48.789999999999992      53.094999999999999
    72   1       7.174999999999998      50.224999999999994      51.659999999999989
    73   1      5.7399999999999949      48.789999999999992      54.529999999999994
    74   1       7.174999999999998      48.789999999999992      55.964999999999989
    75   1       7.174999999999998      50.224999999999994      54.529999999999994
    76   1       7.174999999999998      51.659999999999989      44.484999999999999
    77   1      5.7399999999999949      51.659999999999989      45.919999999999995
    78   1      5.7399999999999949      53.094999999999999      47.354999999999997
    79   1       7.174999999999998      51.659999999999989      47.354999999999997
    80   1       7.174999999999998      53.094999999999999      45.919999999999995
    81   1      5.7399999999999949      51.659999999999989      48.789999999999992
    82   1      5.7399999999999949      53.094999999999999      50.224999999999994
    83   1       7.174999999999998      51.659999999999989      50.224999999999994
    84   1       7.174999999999998      53.094999999999999      48.789999999999992
    85   1      5.7399999999999949      51.659999999999989      51.659999999999989
    86   1       7.174999999999998      51.659999999999989      53.094999999999999
    87   1       7.174999999999998      53.094999999999999      51.659999999999989
    88   1       7.174999999999998      54.529999999999994      47.354999999999997
    89   1      5.7399999999999949      54.529999999999994      48.789999999999992
    90   1       7.174999999999998      54.529999999999994      50.224999999999994
    91   1       7.174999999999998      55.964999999999989      48.789999999999992
    92   1      10.044999999999996      38.744999999999997      48.789999999999992
    93   1      8.6099999999999941      41.614999999999995      47.354999999999997
    94   1      10.044999999999996      40.179999999999993      47.354999999999997
    95   1      10.044999999999996      41.614999999999995      45.919999999999995
    96   1      8.6099999999999941      40.179999999999993      48.789999999999992
    97   1      8.6099999999999941      41.614999999999995      50.224999999999994
    98   1      10.044999999999996      40.179999999999993      50.224999999999994
    99   1      10.044999999999996      41.614999999999995      48.789999999999992
   100   1      10.044999999999996      41.614999999999995      51.659999999999989
   101   1      8.6099999999999941      44.484999999999999      44.484999999999999
   102   1      10.044999999999996       43.04999999999999      44.484999999999999
   103   1      10.044999999999996      44.484999999999999       43.04999999999999
   104   1      8.6099999999999941       43.04999999999999      45.919999999999995
   105   1      8.6099999999999941      44.484999999999999      47.354999999999997
   106   1      10.044999999999996       43.04999999999999      47.354999999999997
   107   1      10.044999999999996      44.484999999999999      45.919999999999995
   108   1      8.6099999999999941       43.04999999999999      48.789999999999992
   109   1      8.6099999999999941      44.484999999999999      50.224999999999994
   110   1      10.044999999999996       43.04999999999999      50.224999999999994
   111   1      10.044999999999996      44.484999999999999      48.789999999999992
   112   1      8.6099999999999941       43.04999999999999      51.659999999999989
   113   1      8.6099999999999941      44.484999999999999      53.094999999999999
   114   1      10.044999999999996       43.04999999999999      53.094999999999999
   115   1      10.044999999999996      44.484999999999999      51.659999999999989
   116   1      10.044999999999996      44.484999999999999      54.529999999999994
   117   1      8.6099999999999941      47.354999999999997      41.614999999999995
   118   1      10.044999999999996      45.919999999999995      41.614999999999995
   119   1      10.044999999999996      47.354999999999997      40.179999999999993
   120   1      8.6099999999999941      45.919999999999995       43.04999999999999
   121   1      8.6099999999999941      47.354999999999997      44.484999999999999
   122   1      10.044999999999996      45.919999999999995      44.484999999999999
   123   1      10.044999999999996      47.354999999999997       43.04999999999999
   124   1      8.6099999999999941      45.919999999999995      45.919999999999995
   125   1      8.6099999999999941      47.354999999999997      47.354999999999997
   126   1      10.044999999999996      45.919999999999995      47.354999999999997
   127   1      10.044999999999996      47.354999999999997      45.919999999999995
   128   1      8.6099999999999941      45.919999999999995      48.789999999999992
   129   1      8.6099999999999941      47.354999999999997      50.224999999999994
   130   1      10.044999999999996      45.919999999999995      50.224999999999994
   131   1      10.044999999999996      47.354999999999997      48.789999999999992
   132   1      8.6099999999999941      45.919999999999995      51.659999999999989
   133   1      8.6099999999999941      47.354999999999997      53.094999999999999
   134   1      10.044999999999996      45.919999999999995      53.094999999999999
   135   1      10.044999999999996      47.354999999999997      51.659999999999989
   136   1      8.6099999999999941      45.919999999999995      54.529999999999994
   137   1      8.6099999999999941      47.354999999999997      55.964999999999989
   138   1      10.044999999999996      45.919999999999995      55.964999999999989
   139   1      10.044999999999996      47.354999999999997      54.529999999999994
   140   1      10.044999999999996      47.354999999999997      57.399999999999999
   141   1      10.044999999999996      48.789999999999992      38.744999999999997
   142   1      8.6099999999999941      48.789999999999992      40.179999999999993
   143   1      8.6099999999999941      50.224999999999994      41.614999999999995
   144   1      10.044999999999996      48.789999999999992      41.614999999999995
   145   1      10.044999999999996      50.224999999999994      40.179999999999993
   146   1      8.6099999999999941      48.789999999999992       43.04999999999999
   147   1      8.6099999999999941      50.224999999999994      44.484999999999999
   148   1      10.044999999999996      48.789999999999992      44.484999999999999
   149   1      10.044999999999996      50.224999999999994       43.04999999999999
   150   1      8.6099999999999941      48.789999999999992      45.919999999999995
   151   1      8.6099999999999941      50.224999999999994      47.354999999999997
   152   1      10.044999999999996      48.789999999999992      47.354999999999997
   153   1      10.044999999999996      50.224999999999994      45.919999999999995
   154   1      8.6099999999999941      48.789999999999992      48.789999999999992
   155   1      8.6099999999999941      50.224999999999994      50.224999999999994
   156   1      10.044999999999996      48.789999999999992      50.224999999999994
   157   1      10.044999999999996      50.224999999999994      48.789999999999992
   158   1      8.6099999999999941      48.789999999999992      51.659999999999989
   159   1      8.6099999999999941      50.224999999999994      53.094999999999999
   160   1      10.044999999999996      48.789999999999992      53.094999999999999
   161   1      10.044999999999996      50.224999999999994      51.659999999999989
   162   1      8.6099999999999941      48.789999999999992      54.529999999999994
   163   1      8.6099999999999941      50.224999999999994      55.964999999999989
   164   1      10.044999999999996      48.789999999999992      55.964999999999989
   165   1      10.044999999999996      50.224999999999994      54.529999999999994
   166   1      8.6099999999999941      48.789999999999992      57.399999999999999
   167   1      10.044999999999996      48.789999999999992      58.835000000000001
   168   1      10.044999999999996      50.224999999999994      57.399999999999999
   169   1      10.044999999999996      51.659999999999989      41.614999999999995
   170   1      8.6099999999999941      51.659999999999989       43.04999999999999
   171   1      8.6099999999999941      53.094999999999999      44.484999999999999
   172   1      10.044999999999996      51.659999999999989      44.484999999999999
   173   1      10.044999999999996      53.094999999999999       43.04999999999999
   174   1      8.6099999999999941      51.659999999999989      45.919999999999995
   175   1      8.6099999999999941      53.094999999999999      47.354999999999997
   176   1      10.044999999999996      51.659999999999989      47.354999999999997
   177   1      10.044999999999996      53.094999999999999      45.919999999999995
   178   1      8.6099999999999941      51.659999999999989      48.789999999999992
   179   1      8.6099999999999941      53.094999999999999      50.224999999999994
   180   1      10.044999999999996      51.659999999999989      50.224999999999994
   181   1      10.044999999999996      53.094999999999999      48.789999999999992
   182   1      8.6099999999999941      51.659999999999989      51.659999999999989
   183   1      8.6099999999999941      53.094999999999999      53.094999999999999
   184   1      10.044999999999996      51.659999999999989      53.094999999999999
   185   1      10.044999999999996      53.094999999999999      51.659999999999989
   186   1      8.6099999999999941      51.659999999999989      54.529999999999994
   187   1      10.044999999999996      51.659999999999989      55.964999999999989
   188   1      10.044999999999996      53.094999999999999      54.529999999999994
   189   1      10.044999999999996      54.529999999999994      44.484999999999999
   190   1      8.6099999999999941      54.529999999999994      45.919999999999995
   191   1      8.6099999999999941      55.964999999999989      47.354999999999997
   192   1      10.044999999999996      54.529999999999994      47.354999999999997
   193   1      10.044999999999996      55.964999999999989      45.919999999999995
   194   1      8.6099999999999941      54.529999999999994      48.789999999999992
   195   1      8.6099999999999941      55.964999999999989      50.224999999999994
   196   1      10.044999999999996      54.529999999999994      50.224999999999994
   197   1      10.044999999999996      55.964999999999989      48.789999999999992
   198   1      8.6099999999999941      54.529999999999994      51.659999999999989
   199   1      10.044999999999996      54.529999999999994      53.094999999999999
   200   1      10.044999999999996      55.964999999999989      51.659999999999989
   201   1      10.044999999999996      57.399999999999999      47.354999999999997
   202   1      8.6099999999999941      57.399999999999999      48.789999999999992
   203   1      10.044999999999996      57.399999999999999      50.224999999999994
   204   1      10.044999999999996      58.835000000000001      48.789999999999992
   205   1      12.914999999999992                  35.875      48.789999999999992
   206   1       11.47999999999999      38.744999999999997      47.354999999999997
   207   1      12.914999999999992      37.309999999999995      47.354999999999997
   208   1      12.914999999999992      38.744999999999997      45.919999999999995
   209   1       11.47999999999999      37.309999999999995      48.789999999999992
   210   1       11.47999999999999      38.744999999999997      50.224999999999994
   211   1      12.914999999999992      37.309999999999995      50.224999999999994
   212   1      12.914999999999992      38.744999999999997      48.789999999999992
   213   1      12.914999999999992      38.744999999999997      51.659999999999989
   214   1       11.47999999999999      41.614999999999995      44.484999999999999
   215   1      12.914999999999992      40.179999999999993      44.484999999999999
   216   1      12.914999999999992      41.614999999999995       43.04999999999999
   217   1       11.47999999999999      40.179999999999993      45.919999999999995
   218   1       11.47999999999999      41.614999999999995      47.354999999999997
   219   1      12.914999999999992      40.179999999999993      47.354999999999997
   220   1      12.914999999999992      41.614999999999995      45.919999999999995
   221   1       11.47999999999999      40.179999999999993      48.789999999999992
   222   1       11.47999999999999      41.614999999999995      50.224999999999994
   223   1      12.914999999999992      40.179999999999993      50.224999999999994
   224   1      12.914999999999992      41.614999999999995      48.789999999999992
   225   1       11.47999999999999      40.179999999999993      51.659999999999989
   226   1       11.47999999999999      41.614999999999995      53.094999999999999
   227   1      12.914999999999992      40.179999999999993      53.094999999999999
   228   1      12.914999999999992      41.614999999999995      51.659999999999989
   229   1      12.914999999999992      41.614999999999995      54.529999999999994
   230   1       11.47999999999999      44.484999999999999      41.614999999999995
   231   1      12.914999999999992       43.04999999999999      41.614999999999995
   232   1      12.914999999999992      44.484999999999999      40.179999999999993
   233   1       11.47999999999999       43.04999999999999       43.04999999999999
   234   1       11.47999999999999      44.484999999999999      44.484999999999999
   235   1      12.914999999999992       43.04999999999999      44.484999999999999
   236   1      12.914999999999992      44.484999999999999       43.04999999999999
   237   1       11.47999999999999       43.04999999999999      45.919999999999995
   238   1       11.47999999999999      44.484999999999999      47.354999999999997
   239   1      12.914999999999992       43.04999999999999      47.354999999999997
   240   1      12.914999999999992      44.484999999999999      45.919999999999995
   241   1       11.47999999999999       43.04999999999999      48.789999999999992
   242   1       11.47999999999999      44.484999999999999      50.224999999999994
   243   1      12.914999999999992       43.04999999999999      50.224999999999994
   244   1      12.914999999999992      44.484999999999999      48.789999999999992
   245   1       11.47999999999999       43.04999999999999      51.659999999999989
   246   1       11.47999999999999      44.484999999999999      53.094999999999999
   247   1      12.914999999999992       43.04999999999999      53.094999999999999
   248   1      12.914999999999992      44.484999999999999      51.659999999999989
   249   1       11.47999999999999       43.04999999999999      54.529999999999994
   250   1       11.47999999999999      44.484999999999999      55.964999999999989
   251   1      12.914999999999992       43.04999999999999      55.964999999999989
   252   1      12.914999999999992      44.484999999999999      54.529999999999994
   253   1      12.914999999999992      44.484999999999999      57.399999999999999
   254   1       11.47999999999999      47.354999999999997      38.744999999999997
   255   1      12.914999999999992      45.919999999999995      38.744999999999997
   256   1      12.914999999999992      47.354999999999997      37.309999999999995
   257   1       11.47999999999999      45.919999999999995      40.179999999999993
   258   1       11.47999999999999      47.354999999999997      41.614999999999995
   259   1      12.914999999999992      45.919999999999995      41.614999999999995
   260   1      12.914999999999992      47.354999999999997      40.179999999999993
   261   1       11.47999999999999      45.919999999999995       43.04999999999999
   262   1       11.47999999999999      47.354999999999997      44.484999999999999
   263   1      12.914999999999992      45.919999999999995      44.484999999999999
   264   1      12.914999999999992      47.354999999999997       43.04999999999999
   265   1       11.47999999999999      45.919999999999995      45.919999999999995
   266   1       11.47999999999999      47.354999999999997      47.354999999999997
   267   1      12.914999999999992      45.919999999999995      47.354999999999997
   268   1      12.914999999999992      47.354999999999997      45.919999999999995
   269   1       11.47999999999999      45.919999999999995      48.789999999999992
   270   1       11.47999999999999      47.354999999999997      50.224999999999994
   271   1      12.914999999999992      45.919999999999995      50.224999999999994
   272   1      12.914999999999992      47.354999999999997      48.789999999999992
   273   1       11.47999999999999      45.919999999999995      51.659999999999989
   274   1       11.47999999999999      47.354999999999997      53.094999999999999
   275   1      12.914999999999992      45.919999999999995      53.094999999999999
   276   1      12.914999999999992      47.354999999999997      51.659999999999989
   277   1       11.47999999999999      45.919999999999995      54.529999999999994
   278   1       11.47999999999999      47.354999999999997      55.964999999999989
   279   1      12.914999999999992      45.919999999999995      55.964999999999989
   280   1      12.914999999999992      47.354999999999997      54.529999999999994
   281   1       11.47999999999999      45.919999999999995      57.399999999999999
   282   1       11.47999999999999      47.354999999999997      58.835000000000001
   283   1      12.914999999999992      45.919999999999995      58.835000000000001
   284   1      12.914999999999992      47.354999999999997      57.399999999999999
   285   1      12.914999999999992      47.354999999999997      60.269999999999996
   286   1      12.914999999999992      48.789999999999992                  35.875
   287   1       11.47999999999999      48.789999999999992      37.309999999999995
   288   1       11.47999999999999      50.224999999999994      38.744999999999997
   289   1      12.914999999999992      48.789999999999992      38.744999999999997
   290   1      12.914999999999992      50.224999999999994      37.309999999999995
   291   1       11.47999999999999      48.789999999999992      40.179999999999993
   292   1       11.47999999999999      50.224999999999994      41.614999999999995
   293   1      12.914999999999992      48.789999999999992      41.614999999999995
   294   1      12.914999999999992      50.224999999999994      40.179999999999993
   295   1       11.47999999999999      48.789999999999992       43.04999999999999
   296   1       11.47999999999999      50.224999999999994      44.484999999999999
   297   1      12.914999999999992      48.789999999999992      44.484999999999999
   298   1      12.914999999999992      50.224999999999994       43.04999999999999
   299   1       11.47999999999999      48.789999999999992      45.919999999999995
   300   1       11.47999999999999      50.224999999999994      47.354999999999997
   301   1      12.914999999999992      48.789999999999992      47.354999999999997
   302   1      12.914999999999992      50.224999999999994      45.919999999999995
   303   1       11.47999999999999      48.789999999999992      48.789999999999992
   304   1       11.47999999999999      50.224999999999994      50.224999999999994
   305   1      12.914999999999992      48.789999999999992      50.224999999999994
   306   1      12.914999999999992      50.224999999999994      48.789999999999992
   307   1       11.47999999999999      48.789999999999992      51.659999999999989
   308   1       11.47999999999999      50.224999999999994      53.094999999999999
   309   1      12.914999999999992      48.789999999999992      53.094999999999999
   310   1      12.914999999999992      50.224999999999994      51.659999999999989
   311   1       11.47999999999999      48.789999999999992      54.529999999999994
   312   1       11.47999999999999      50.224999999999994      55.964999999999989
   313   1      12.914999999999992      48.789999999999992      55.964999999999989
   314   1      12.914999999999992      50.224999999999994      54.529999999999994
   315   1       11.47999999999999      48.789999999999992      57.399999999999999
   316   1       11.47999999999999      50.224999999999994      58.835000000000001
   317   1      12.914999999999992      48.789999999999992      58.835000000000001
   318   1      12.914999999999992      50.224999999999994      57.399999999999999
   319   1       11.47999999999999      48.789999999999992      60.269999999999996
   320   1      12.914999999999992      48.789999999999992      61.704999999999991
   321   1      12.914999999999992      50.224999999999994      60.269999999999996
   322   1      12.914999999999992      51.659999999999989      38.744999999999997
   323   1       11.47999999999999      51.659999999999989      40.179999999999993
   324   1       11.47999999999999      53.094999999999999      41.614999999999995
   325   1      12.914999999999992      51.659999999999989      41.614999999999995
   326   1      12.914999999999992      53.094999999999999      40.179999999999993
   327   1       11.47999999999999      51.659999999999989       43.04999999999999
   328   1       11.47999999999999      53.094999999999999      44.484999999999999
   329   1      12.914999999999992      51.659999999999989      44.484999999999999
   330   1      12.914999999999992      53.094999999999999       43.04999999999999
   331   1       11.47999999999999      51.659999999999989      45.919999999999995
   332   1       11.47999999999999      53.094999999999999      47.354999999999997
   333   1      12.914999999999992      51.659999999999989      47.354999999999997
   334   1      12.914999999999992      53.094999999999999      45.919999999999995
   335   1       11.47999999999999      51.659999999999989      48.789999999999992
   336   1       11.47999999999999      53.094999999999999      50.224999999999994
   337   1      12.914999999999992      51.659999999999989      50.224999999999994
   338   1      12.914999999999992      53.094999999999999      48.789999999999992
   339   1       11.47999999999999      51.659999999999989      51.659999999999989
   340   1       11.47999999999999      53.094999999999999      53.094999999999999
   341   1      12.914999999999992      51.659999999999989      53.094999999999999
   342   1      12.914999999999992      53.094999999999999      51.659999999999989
   343   1       11.47999999999999      51.659999999999989      54.529999999999994
   344   1       11.47999999999999      53.094999999999999      55.964999999999989
   345   1      12.914999999999992      51.659999999999989      55.964999999999989
   346   1      12.914999999999992      53.094999999999999      54.529999999999994
   347   1       11.47999999999999      51.659999999999989      57.399999999999999
   348   1      12.914999999999992      51.659999999999989      58.835000000000001
   349   1      12.914999999999992      53.094999999999999      57.399999999999999
   350   1      12.914999999999992      54.529999999999994      41.614999999999995
   351   1       11.47999999999999      54.529999999999994       43.04999999999999
   352   1       11.47999999999999      55.964999999999989      44.484999999999999
   353   1      12.914999999999992      54.529999999999994      44.484999999999999
   354   1      12.914999999999992      55.964999999999989       43.04999999999999
   355   1       11.47999999999999      54.529999999999994      45.919999999999995
   356   1       11.47999999999999      55.964999999999989      47.354999999999997
   357   1      12.914999999999992      54.529999999999994      47.354999999999997
   358   1      12.914999999999992      55.964999999999989      45.919999999999995