model_files/PdCu/PdCu_30000/PdCu_430/PdCu_430_fcc_29909_temp.data (written by ASE) 

29909 	 atoms 
2  atom types
0.0                     107  xlo xhi
0.0                     107  ylo yhi
0.0                     107  zlo zhi


Atoms 

     1   1      1.8874999999999955      50.962499999999999      52.849999999999994
     2   1      1.8874999999999955      52.849999999999994      50.962499999999999
     3   1      106.99999999999999      52.849999999999994      52.849999999999994
     4   1      1.8874999999999955      52.849999999999994      54.737499999999997
     5   1      1.8874999999999955      54.737499999999997      52.849999999999994
     6   1       3.774999999999991      47.187499999999986      47.187499999999986
     7   1      5.6624999999999934      45.299999999999983      47.187499999999986
     8   1      5.6624999999999934      47.187499999999986      45.299999999999983
     9   1       3.774999999999991      47.187499999999986      50.962499999999999
    10   1      5.6624999999999934      45.299999999999983      50.962499999999999
    11   1      5.6624999999999934      47.187499999999986      49.074999999999996
    12   1       3.774999999999991      47.187499999999986      54.737499999999997
    13   1      5.6624999999999934      45.299999999999983      54.737499999999997
    14   1      5.6624999999999934      47.187499999999986      52.849999999999994
    15   1       3.774999999999991      47.187499999999986      58.512499999999989
    16   1      5.6624999999999934      45.299999999999983      58.512499999999989
    17   1      5.6624999999999934      47.187499999999986      56.624999999999986
    18   1      5.6624999999999934      47.187499999999986      60.399999999999984
    19   1       3.774999999999991      50.962499999999999      47.187499999999986
    20   1      5.6624999999999934      49.074999999999996      47.187499999999986
    21   1      5.6624999999999934      50.962499999999999      45.299999999999983
    22   1       3.774999999999991      49.074999999999996      49.074999999999996
    23   1       3.774999999999991      50.962499999999999      50.962499999999999
    24   1      5.6624999999999934      49.074999999999996      50.962499999999999
    25   1      5.6624999999999934      50.962499999999999      49.074999999999996
    26   1       3.774999999999991      49.074999999999996      52.849999999999994
    27   1       3.774999999999991      50.962499999999999      54.737499999999997
    28   1      5.6624999999999934      49.074999999999996      54.737499999999997
    29   1      5.6624999999999934      50.962499999999999      52.849999999999994
    30   1       3.774999999999991      49.074999999999996      56.624999999999986
    31   1       3.774999999999991      50.962499999999999      58.512499999999989
    32   1      5.6624999999999934      49.074999999999996      58.512499999999989
    33   1      5.6624999999999934      50.962499999999999      56.624999999999986
    34   1      5.6624999999999934      50.962499999999999      60.399999999999984
    35   1       3.774999999999991      54.737499999999997      47.187499999999986
    36   1      5.6624999999999934      52.849999999999994      47.187499999999986
    37   1      5.6624999999999934      54.737499999999997      45.299999999999983
    38   1       3.774999999999991      52.849999999999994      49.074999999999996
    39   1       3.774999999999991      54.737499999999997      50.962499999999999
    40   1      5.6624999999999934      52.849999999999994      50.962499999999999
    41   1      5.6624999999999934      54.737499999999997      49.074999999999996
    42   1       3.774999999999991      52.849999999999994      52.849999999999994
    43   1       3.774999999999991      54.737499999999997      54.737499999999997
    44   1      5.6624999999999934      52.849999999999994      54.737499999999997
    45   1      5.6624999999999934      54.737499999999997      52.849999999999994
    46   1       3.774999999999991      52.849999999999994      56.624999999999986
    47   1       3.774999999999991      54.737499999999997      58.512499999999989
    48   1      5.6624999999999934      52.849999999999994      58.512499999999989
    49   1      5.6624999999999934      54.737499999999997      56.624999999999986
    50   1      5.6624999999999934      54.737499999999997      60.399999999999984
    51   1       3.774999999999991      58.512499999999989      47.187499999999986
    52   1      5.6624999999999934      56.624999999999986      47.187499999999986
    53   1      5.6624999999999934      58.512499999999989      45.299999999999983
    54   1       3.774999999999991      56.624999999999986      49.074999999999996
    55   1       3.774999999999991      58.512499999999989      50.962499999999999
    56   1      5.6624999999999934      56.624999999999986      50.962499999999999
    57   1      5.6624999999999934      58.512499999999989      49.074999999999996
    58   1       3.774999999999991      56.624999999999986      52.849999999999994
    59   1       3.774999999999991      58.512499999999989      54.737499999999997
    60   1      5.6624999999999934      56.624999999999986      54.737499999999997
    61   1      5.6624999999999934      58.512499999999989      52.849999999999994
    62   1       3.774999999999991      56.624999999999986      56.624999999999986
    63   1       3.774999999999991      58.512499999999989      58.512499999999989
    64   1      5.6624999999999934      56.624999999999986      58.512499999999989
    65   1      5.6624999999999934      58.512499999999989      56.624999999999986
    66   1      5.6624999999999934      58.512499999999989      60.399999999999984
    67   1      5.6624999999999934      60.399999999999984      47.187499999999986
    68   1      5.6624999999999934      60.399999999999984      50.962499999999999
    69   1      5.6624999999999934      60.399999999999984      54.737499999999997
    70   1      5.6624999999999934      60.399999999999984      58.512499999999989
    71   1      9.4374999999999929      39.637499999999989      41.524999999999984
    72   1      9.4374999999999929      39.637499999999989      45.299999999999983
    73   1      9.4374999999999929      39.637499999999989      49.074999999999996
    74   1      9.4374999999999929      39.637499999999989      52.849999999999994
    75   1      9.4374999999999929      39.637499999999989      56.624999999999986
    76   1      9.4374999999999929      39.637499999999989      60.399999999999984
    77   1      9.4374999999999929      39.637499999999989      64.174999999999997
    78   1      9.4374999999999929      41.524999999999984      39.637499999999989
    79   1      7.5499999999999972      43.412499999999987      43.412499999999987
    80   1      9.4374999999999929      41.524999999999984      43.412499999999987
    81   1      9.4374999999999929      43.412499999999987      41.524999999999984
    82   1      7.5499999999999972      43.412499999999987      47.187499999999986
    83   1      9.4374999999999929      41.524999999999984      47.187499999999986
    84   1      9.4374999999999929      43.412499999999987      45.299999999999983
    85   1      7.5499999999999972      43.412499999999987      50.962499999999999
    86   1      9.4374999999999929      41.524999999999984      50.962499999999999
    87   1      9.4374999999999929      43.412499999999987      49.074999999999996
    88   1      7.5499999999999972      43.412499999999987      54.737499999999997
    89   1      9.4374999999999929      41.524999999999984      54.737499999999997
    90   1      9.4374999999999929      43.412499999999987      52.849999999999994
    91   1      7.5499999999999972      43.412499999999987      58.512499999999989
    92   1      9.4374999999999929      41.524999999999984      58.512499999999989
    93   1      9.4374999999999929      43.412499999999987      56.624999999999986
    94   1      7.5499999999999972      43.412499999999987      62.287499999999987
    95   1      9.4374999999999929      41.524999999999984      62.287499999999987
    96   1      9.4374999999999929      43.412499999999987      60.399999999999984
    97   1      9.4374999999999929      41.524999999999984                 66.0625
    98   1      9.4374999999999929      43.412499999999987      64.174999999999997
    99   1      9.4374999999999929      45.299999999999983      39.637499999999989
   100   1      7.5499999999999972      47.187499999999986      43.412499999999987
   101   1      9.4374999999999929      45.299999999999983      43.412499999999987
   102   1      9.4374999999999929      47.187499999999986      41.524999999999984
   103   1      7.5499999999999972      45.299999999999983      45.299999999999983
   104   1      7.5499999999999972      47.187499999999986      47.187499999999986
   105   1      9.4374999999999929      45.299999999999983      47.187499999999986
   106   1      9.4374999999999929      47.187499999999986      45.299999999999983
   107   1      7.5499999999999972      45.299999999999983      49.074999999999996
   108   1      7.5499999999999972      47.187499999999986      50.962499999999999
   109   1      9.4374999999999929      45.299999999999983      50.962499999999999
   110   1      9.4374999999999929      47.187499999999986      49.074999999999996
   111   1      7.5499999999999972      45.299999999999983      52.849999999999994
   112   1      7.5499999999999972      47.187499999999986      54.737499999999997
   113   1      9.4374999999999929      45.299999999999983      54.737499999999997
   114   1      9.4374999999999929      47.187499999999986      52.849999999999994
   115   1      7.5499999999999972      45.299999999999983      56.624999999999986
   116   1      7.5499999999999972      47.187499999999986      58.512499999999989
   117   1      9.4374999999999929      45.299999999999983      58.512499999999989
   118   1      9.4374999999999929      47.187499999999986      56.624999999999986
   119   1      7.5499999999999972      45.299999999999983      60.399999999999984
   120   1      7.5499999999999972      47.187499999999986      62.287499999999987
   121   1      9.4374999999999929      45.299999999999983      62.287499999999987
   122   1      9.4374999999999929      47.187499999999986      60.399999999999984
   123   1      9.4374999999999929      45.299999999999983                 66.0625
   124   1      9.4374999999999929      47.187499999999986      64.174999999999997
   125   1      9.4374999999999929      49.074999999999996      39.637499999999989
   126   1      7.5499999999999972      50.962499999999999      43.412499999999987
   127   1      9.4374999999999929      49.074999999999996      43.412499999999987
   128   1      9.4374999999999929      50.962499999999999      41.524999999999984
   129   1      7.5499999999999972      49.074999999999996      45.299999999999983
   130   1      7.5499999999999972      50.962499999999999      47.187499999999986
   131   1      9.4374999999999929      49.074999999999996      47.187499999999986
   132   1      9.4374999999999929      50.962499999999999      45.299999999999983
   133   1      7.5499999999999972      49.074999999999996      49.074999999999996
   134   1      7.5499999999999972      50.962499999999999      50.962499999999999
   135   1      9.4374999999999929      49.074999999999996      50.962499999999999
   136   1      9.4374999999999929      50.962499999999999      49.074999999999996
   137   1      7.5499999999999972      49.074999999999996      52.849999999999994
   138   1      7.5499999999999972      50.962499999999999      54.737499999999997
   139   1      9.4374999999999929      49.074999999999996      54.737499999999997
   140   1      9.4374999999999929      50.962499999999999      52.849999999999994
   141   1      7.5499999999999972      49.074999999999996      56.624999999999986
   142   1      7.5499999999999972      50.962499999999999      58.512499999999989
   143   1      9.4374999999999929      49.074999999999996      58.512499999999989
   144   1      9.4374999999999929      50.962499999999999      56.624999999999986
   145   1      7.5499999999999972      49.074999999999996      60.399999999999984
   146   1      7.5499999999999972      50.962499999999999      62.287499999999987
   147   1      9.4374999999999929      49.074999999999996      62.287499999999987
   148   1      9.4374999999999929      50.962499999999999      60.399999999999984
   149   1      9.4374999999999929      49.074999999999996                 66.0625
   150   1      9.4374999999999929      50.962499999999999      64.174999999999997
   151   1      9.4374999999999929      52.849999999999994      39.637499999999989
   152   1      7.5499999999999972      54.737499999999997      43.412499999999987
   153   1      9.4374999999999929      52.849999999999994      43.412499999999987
   154   1      9.4374999999999929      54.737499999999997      41.524999999999984
   155   1      7.5499999999999972      52.849999999999994      45.299999999999983
   156   1      7.5499999999999972      54.737499999999997      47.187499999999986
   157   1      9.4374999999999929      52.849999999999994      47.187499999999986
   158   1      9.4374999999999929      54.737499999999997      45.299999999999983
   159   1      7.5499999999999972      52.849999999999994      49.074999999999996
   160   1      7.5499999999999972      54.737499999999997      50.962499999999999
   161   1      9.4374999999999929      52.849999999999994      50.962499999999999
   162   1      9.4374999999999929      54.737499999999997      49.074999999999996
   163   1      7.5499999999999972      52.849999999999994      52.849999999999994
   164   1      7.5499999999999972      54.737499999999997      54.737499999999997
   165   1      9.4374999999999929      52.849999999999994      54.737499999999997
   166   1      9.4374999999999929      54.737499999999997      52.849999999999994
   167   1      7.5499999999999972      52.849999999999994      56.624999999999986
   168   1      7.5499999999999972      54.737499999999997      58.512499999999989
   169   1      9.4374999999999929      52.849999999999994      58.512499999999989
   170   1      9.4374999999999929      54.737499999999997      56.624999999999986
   171   1      7.5499999999999972      52.849999999999994      60.399999999999984
   172   1      7.5499999999999972      54.737499999999997      62.287499999999987
   173   1      9.4374999999999929      52.849999999999994      62.287499999999987
   174   1      9.4374999999999929      54.737499999999997      60.399999999999984
   175   1      9.4374999999999929      52.849999999999994                 66.0625
   176   1      9.4374999999999929      54.737499999999997      64.174999999999997
   177   1      9.4374999999999929      56.624999999999986      39.637499999999989
   178   1      7.5499999999999972      58.512499999999989      43.412499999999987
   179   1      9.4374999999999929      56.624999999999986      43.412499999999987
   180   1      9.4374999999999929      58.512499999999989      41.524999999999984
   181   1      7.5499999999999972      56.624999999999986      45.299999999999983
   182   1      7.5499999999999972      58.512499999999989      47.187499999999986
   183   1      9.4374999999999929      56.624999999999986      47.187499999999986
   184   1      9.4374999999999929      58.512499999999989      45.299999999999983
   185   1      7.5499999999999972      56.624999999999986      49.074999999999996
   186   1      7.5499999999999972      58.512499999999989      50.962499999999999
   187   1      9.4374999999999929      56.624999999999986      50.962499999999999
   188   1      9.4374999999999929      58.512499999999989      49.074999999999996
   189   1      7.5499999999999972      56.624999999999986      52.849999999999994
   190   1      7.5499999999999972      58.512499999999989      54.737499999999997
   191   1      9.4374999999999929      56.624999999999986      54.737499999999997
   192   1      9.4374999999999929      58.512499999999989      52.849999999999994
   193   1      7.5499999999999972      56.624999999999986      56.624999999999986
   194   1      7.5499999999999972      58.512499999999989      58.512499999999989
   195   1      9.4374999999999929      56.624999999999986      58.512499999999989
   196   1      9.4374999999999929      58.512499999999989      56.624999999999986
   197   1      7.5499999999999972      56.624999999999986      60.399999999999984
   198   1      7.5499999999999972      58.512499999999989      62.287499999999987
   199   1      9.4374999999999929      56.624999999999986      62.287499999999987
   200   1      9.4374999999999929      58.512499999999989      60.399999999999984
   201   1      9.4374999999999929      56.624999999999986                 66.0625
   202   1      9.4374999999999929      58.512499999999989      64.174999999999997
   203   1      9.4374999999999929      60.399999999999984      39.637499999999989
   204   1      7.5499999999999972      62.287499999999987      43.412499999999987
   205   1      9.4374999999999929      60.399999999999984      43.412499999999987
   206   1      9.4374999999999929      62.287499999999987      41.524999999999984
   207   1      7.5499999999999972      60.399999999999984      45.299999999999983
   208   1      7.5499999999999972      62.287499999999987      47.187499999999986
   209   1      9.4374999999999929      60.399999999999984      47.187499999999986
   210   1      9.4374999999999929      62.287499999999987      45.299999999999983
   211   1      7.5499999999999972      60.399999999999984      49.074999999999996
   212   1      7.5499999999999972      62.287499999999987      50.962499999999999
   213   1      9.4374999999999929      60.399999999999984      50.962499999999999
   214   1      9.4374999999999929      62.287499999999987      49.074999999999996
   215   1      7.5499999999999972      60.399999999999984      52.849999999999994
   216   1      7.5499999999999972      62.287499999999987      54.737499999999997
   217   1      9.4374999999999929      60.399999999999984      54.737499999999997
   218   1      9.4374999999999929      62.287499999999987      52.849999999999994
   219   1      7.5499999999999972      60.399999999999984      56.624999999999986
   220   1      7.5499999999999972      62.287499999999987      58.512499999999989
   221   1      9.4374999999999929      60.399999999999984      58.512499999999989
   222   1      9.4374999999999929      62.287499999999987      56.624999999999986
   223   1      7.5499999999999972      60.399999999999984      60.399999999999984
   224   1      7.5499999999999972      62.287499999999987      62.287499999999987
   225   1      9.4374999999999929      60.399999999999984      62.287499999999987
   226   1      9.4374999999999929      62.287499999999987      60.399999999999984
   227   1      9.4374999999999929      60.399999999999984                 66.0625
   228   1      9.4374999999999929      62.287499999999987      64.174999999999997
   229   1      9.4374999999999929      64.174999999999997      39.637499999999989
   230   1      9.4374999999999929      64.174999999999997      43.412499999999987
   231   1      9.4374999999999929                 66.0625      41.524999999999984
   232   1      9.4374999999999929      64.174999999999997      47.187499999999986
   233   1      9.4374999999999929                 66.0625      45.299999999999983
   234   1      9.4374999999999929      64.174999999999997      50.962499999999999
   235   1      9.4374999999999929                 66.0625      49.074999999999996
   236   1      9.4374999999999929      64.174999999999997      54.737499999999997
   237   1      9.4374999999999929                 66.0625      52.849999999999994
   238   1      9.4374999999999929      64.174999999999997      58.512499999999989
   239   1      9.4374999999999929                 66.0625      56.624999999999986
   240   1      9.4374999999999929      64.174999999999997      62.287499999999987
   241   1      9.4374999999999929                 66.0625      60.399999999999984
   242   1      9.4374999999999929      64.174999999999997                 66.0625
   243   1      9.4374999999999929                 66.0625      64.174999999999997
   244   1      13.212499999999991       35.86249999999999      37.749999999999986
   245   1      13.212499999999991       35.86249999999999      41.524999999999984
   246   1      13.212499999999991       35.86249999999999      45.299999999999983
   247   1      13.212499999999991       35.86249999999999      49.074999999999996
   248   1      13.212499999999991       35.86249999999999      52.849999999999994
   249   1      13.212499999999991       35.86249999999999      56.624999999999986
   250   1      13.212499999999991       35.86249999999999      60.399999999999984
   251   1      13.212499999999991       35.86249999999999      64.174999999999997
   252   1      13.212499999999991       35.86249999999999      67.949999999999989
   253   1      13.212499999999991      37.749999999999986       35.86249999999999
   254   1      11.324999999999994      37.749999999999986      37.749999999999986
   255   1      11.324999999999994      39.637499999999989      39.637499999999989
   256   1      13.212499999999991      37.749999999999986      39.637499999999989
   257   1      13.212499999999991      39.637499999999989      37.749999999999986
   258   1      11.324999999999994      37.749999999999986      41.524999999999984
   259   1      11.324999999999994      39.637499999999989      43.412499999999987
   260   1      13.212499999999991      37.749999999999986      43.412499999999987
   261   1      13.212499999999991      39.637499999999989      41.524999999999984
   262   1      11.324999999999994      37.749999999999986      45.299999999999983
   263   1      11.324999999999994      39.637499999999989      47.187499999999986
   264   1      13.212499999999991      37.749999999999986      47.187499999999986
   265   1      13.212499999999991      39.637499999999989      45.299999999999983
   266   1      11.324999999999994      37.749999999999986      49.074999999999996
   267   1      11.324999999999994      39.637499999999989      50.962499999999999
   268   1      13.212499999999991      37.749999999999986      50.962499999999999
   269   1      13.212499999999991      39.637499999999989      49.074999999999996
   270   1      11.324999999999994      37.749999999999986      52.849999999999994
   271   1      11.324999999999994      39.637499999999989      54.737499999999997
   272   1      13.212499999999991      37.749999999999986      54.737499999999997
   273   1      13.212499999999991      39.637499999999989      52.849999999999994
   274   1      11.324999999999994      37.749999999999986      56.624999999999986
   275   1      11.324999999999994      39.637499999999989      58.512499999999989
   276   1      13.212499999999991      37.749999999999986      58.512499999999989
   277   1      13.212499999999991      39.637499999999989      56.624999999999986
   278   1      11.324999999999994      37.749999999999986      60.399999999999984
   279   1      11.324999999999994      39.637499999999989      62.287499999999987
   280   1      13.212499999999991      37.749999999999986      62.287499999999987
   281   1      13.212499999999991      39.637499999999989      60.399999999999984
   282   1      11.324999999999994      37.749999999999986      64.174999999999997
   283   1      11.324999999999994      39.637499999999989                 66.0625
   284   1      13.212499999999991      37.749999999999986                 66.0625
   285   1      13.212499999999991      39.637499999999989      64.174999999999997
   286   1      11.324999999999994      37.749999999999986      67.949999999999989
   287   1      13.212499999999991      37.749999999999986      69.837499999999991
   288   1      13.212499999999991      39.637499999999989      67.949999999999989
   289   1      13.212499999999991      41.524999999999984       35.86249999999999
   290   1      11.324999999999994      41.524999999999984      37.749999999999986
   291   1      11.324999999999994      43.412499999999987      39.637499999999989
   292   1      13.212499999999991      41.524999999999984      39.637499999999989
   293   1      13.212499999999991      43.412499999999987      37.749999999999986
   294   1      11.324999999999994      41.524999999999984      41.524999999999984
   295   1      11.324999999999994      43.412499999999987      43.412499999999987
   296   1      13.212499999999991      41.524999999999984      43.412499999999987
   297   1      13.212499999999991      43.412499999999987      41.524999999999984
   298   1      11.324999999999994      41.524999999999984      45.299999999999983
   299   1      11.324999999999994      43.412499999999987      47.187499999999986
   300   1      13.212499999999991      41.524999999999984      47.187499999999986
   301   1      13.212499999999991      43.412499999999987      45.299999999999983
   302   1      11.324999999999994      41.524999999999984      49.074999999999996
   303   1      11.324999999999994      43.412499999999987      50.962499999999999
   304   1      13.212499999999991      41.524999999999984      50.962499999999999
   305   1      13.212499999999991      43.412499999999987      49.074999999999996
   306   1      11.324999999999994      41.524999999999984      52.849999999999994
   307   1      11.324999999999994      43.412499999999987      54.737499999999997
   308   1      13.212499999999991      41.524999999999984      54.737499999999997
   309   1      13.212499999999991      43.412499999999987      52.849999999999994
   310   1      11.324999999999994      41.524999999999984      56.624999999999986
   311   1      11.324999999999994      43.412499999999987      58.512499999999989
   312   1      13.212499999999991      41.524999999999984      58.512499999999989
   313   1      13.212499999999991      43.412499999999987      56.624999999999986
   314   1      11.324999999999994      41.524999999999984      60.399999999999984
   315   1      11.324999999999994      43.412499999999987      62.287499999999987
   316   1      13.212499999999991      41.524999999999984      62.287499999999987
   317   1      13.212499999999991      43.412499999999987      60.399999999999984
   318   1      11.324999999999994      41.524999999999984      64.174999999999997
   319   1      11.324999999999994      43.412499999999987                 66.0625
   320   1      13.212499999999991      41.524999999999984                 66.0625
   321   1      13.212499999999991      43.412499999999987      64.174999999999997
   322   1      11.324999999999994      41.524999999999984      67.949999999999989
   323   1      13.212499999999991      41.524999999999984      69.837499999999991
   324   1      13.212499999999991      43.412499999999987      67.949999999999989
   325   1      13.212499999999991      45.299999999999983       35.86249999999999
   326   1      11.324999999999994      45.299999999999983      37.749999999999986
   327   1      11.324999999999994      47.187499999999986      39.637499999999989
   328   1      13.212499999999991      45.299999999999983      39.637499999999989
   329   1      13.212499999999991      47.187499999999986      37.749999999999986
   330   1      11.324999999999994      45.299999999999983      41.524999999999984
   331   1      11.324999999999994      47.187499999999986      43.412499999999987
   332   1      13.212499999999991      45.299999999999983      43.412499999999987
   333   1      13.212499999999991      47.187499999999986      41.524999999999984
   334   1      11.324999999999994      45.299999999999983      45.299999999999983
   335   1      11.324999999999994      47.187499999999986      47.187499999999986
   336   1      13.212499999999991      45.299999999999983      47.187499999999986
   337   1      13.212499999999991      47.187499999999986      45.299999999999983
   338   1      11.324999999999994      45.299999999999983      49.074999999999996
   339   1      11.324999999999994      47.187499999999986      50.962499999999999
   340   1      13.212499999999991      45.299999999999983      50.962499999999999
   341   1      13.212499999999991      47.187499999999986      49.074999999999996
   342   1      11.324999999999994      45.299999999999983      52.849999999999994
   343   1      11.324999999999994      47.187499999999986      54.737499999999997
   344   1      13.212499999999991      45.299999999999983      54.737499999999997
   345   1      13.212499999999991      47.187499999999986      52.849999999999994
   346   1      11.324999999999994      45.299999999999983      56.624999999999986
   347   1      11.324999999999994      47.187499999999986      58.512499999999989
   348   1      13.212499999999991      45.299999999999983      58.512499999999989
   349   1      13.212499999999991      47.187499999999986      56.624999999999986
   350   1      11.324999999999994      45.299999999999983      60.399999999999984
   351   1      11.324999999999994      47.187499999999986      62.287499999999987
   352   1      13.212499999999991      45.299999999999983      62.287499999999987
   353   1      13.212499999999991      47.187499999999986      60.399999999999984
   354   1      11.324999999999994      45.299999999999983      64.174999999999997
   355   1      11.324999999999994      47.187499999999986                 66.0625
   356   1      13.212499999999991      45.299999999999983                 66.0625
   357   1      13.212499999999991      47.187499999999986      64.174999999999997
   358   1      11.324999999999994      45.299999999999983      67.949999999999989