model_files/PtFe/PtFe_30000/PtFe_540/PtFe_540_fcc_29765_temp.data (written by ASE) 

29765 	 atoms 
2  atom types
0.0                     107  xlo xhi
0.0                     107  ylo yhi
0.0                     107  zlo zhi


Atoms 

     1   1      106.99999999999999      50.759999999999998      50.759999999999998
     2   1      1.8799999999999955      48.879999999999995      50.759999999999998
     3   1      1.8799999999999955      50.759999999999998      48.879999999999995
     4   1      106.99999999999999      50.759999999999998      54.519999999999989
     5   1      1.8799999999999955      48.879999999999995      54.519999999999989
     6   1      1.8799999999999955      50.759999999999998      52.639999999999986
     7   1      1.8799999999999955      50.759999999999998      56.399999999999984
     8   1      106.99999999999999      54.519999999999989      50.759999999999998
     9   1      1.8799999999999955      52.639999999999986      50.759999999999998
    10   1      1.8799999999999955      54.519999999999989      48.879999999999995
    11   1      106.99999999999999      52.639999999999986      52.639999999999986
    12   1      106.99999999999999      54.519999999999989      54.519999999999989
    13   1      1.8799999999999955      52.639999999999986      54.519999999999989
    14   1      1.8799999999999955      54.519999999999989      52.639999999999986
    15   1      1.8799999999999955      54.519999999999989      56.399999999999984
    16   1      1.8799999999999955      56.399999999999984      50.759999999999998
    17   1      1.8799999999999955      56.399999999999984      54.519999999999989
    18   1      3.7599999999999976      46.999999999999986      46.999999999999986
    19   1      5.6399999999999935       45.11999999999999      46.999999999999986
    20   1      5.6399999999999935      46.999999999999986       45.11999999999999
    21   1      3.7599999999999976      46.999999999999986      50.759999999999998
    22   1      5.6399999999999935       45.11999999999999      50.759999999999998
    23   1      5.6399999999999935      46.999999999999986      48.879999999999995
    24   1      3.7599999999999976      46.999999999999986      54.519999999999989
    25   1      5.6399999999999935       45.11999999999999      54.519999999999989
    26   1      5.6399999999999935      46.999999999999986      52.639999999999986
    27   1      3.7599999999999976      46.999999999999986      58.279999999999987
    28   1      5.6399999999999935       45.11999999999999      58.279999999999987
    29   1      5.6399999999999935      46.999999999999986      56.399999999999984
    30   1      5.6399999999999935      46.999999999999986      60.159999999999982
    31   1      3.7599999999999976      50.759999999999998      46.999999999999986
    32   1      5.6399999999999935      48.879999999999995      46.999999999999986
    33   1      5.6399999999999935      50.759999999999998       45.11999999999999
    34   1      3.7599999999999976      48.879999999999995      48.879999999999995
    35   1      3.7599999999999976      50.759999999999998      50.759999999999998
    36   1      5.6399999999999935      48.879999999999995      50.759999999999998
    37   1      5.6399999999999935      50.759999999999998      48.879999999999995
    38   1      3.7599999999999976      48.879999999999995      52.639999999999986
    39   1      3.7599999999999976      50.759999999999998      54.519999999999989
    40   1      5.6399999999999935      48.879999999999995      54.519999999999989
    41   1      5.6399999999999935      50.759999999999998      52.639999999999986
    42   1      3.7599999999999976      48.879999999999995      56.399999999999984
    43   1      3.7599999999999976      50.759999999999998      58.279999999999987
    44   1      5.6399999999999935      48.879999999999995      58.279999999999987
    45   1      5.6399999999999935      50.759999999999998      56.399999999999984
    46   1      5.6399999999999935      50.759999999999998      60.159999999999982
    47   1      3.7599999999999976      54.519999999999989      46.999999999999986
    48   1      5.6399999999999935      52.639999999999986      46.999999999999986
    49   1      5.6399999999999935      54.519999999999989       45.11999999999999
    50   1      3.7599999999999976      52.639999999999986      48.879999999999995
    51   1      3.7599999999999976      54.519999999999989      50.759999999999998
    52   1      5.6399999999999935      52.639999999999986      50.759999999999998
    53   1      5.6399999999999935      54.519999999999989      48.879999999999995
    54   1      3.7599999999999976      52.639999999999986      52.639999999999986
    55   1      3.7599999999999976      54.519999999999989      54.519999999999989
    56   1      5.6399999999999935      52.639999999999986      54.519999999999989
    57   1      5.6399999999999935      54.519999999999989      52.639999999999986
    58   1      3.7599999999999976      52.639999999999986      56.399999999999984
    59   1      3.7599999999999976      54.519999999999989      58.279999999999987
    60   1      5.6399999999999935      52.639999999999986      58.279999999999987
    61   1      5.6399999999999935      54.519999999999989      56.399999999999984
    62   1      5.6399999999999935      54.519999999999989      60.159999999999982
    63   1      3.7599999999999976      58.279999999999987      46.999999999999986
    64   1      5.6399999999999935      56.399999999999984      46.999999999999986
    65   1      5.6399999999999935      58.279999999999987       45.11999999999999
    66   1      3.7599999999999976      56.399999999999984      48.879999999999995
    67   1      3.7599999999999976      58.279999999999987      50.759999999999998
    68   1      5.6399999999999935      56.399999999999984      50.759999999999998
    69   1      5.6399999999999935      58.279999999999987      48.879999999999995
    70   1      3.7599999999999976      56.399999999999984      52.639999999999986
    71   1      3.7599999999999976      58.279999999999987      54.519999999999989
    72   1      5.6399999999999935      56.399999999999984      54.519999999999989
    73   1      5.6399999999999935      58.279999999999987      52.639999999999986
    74   1      3.7599999999999976      56.399999999999984      56.399999999999984
    75   1      3.7599999999999976      58.279999999999987      58.279999999999987
    76   1      5.6399999999999935      56.399999999999984      58.279999999999987
    77   1      5.6399999999999935      58.279999999999987      56.399999999999984
    78   1      5.6399999999999935      58.279999999999987      60.159999999999982
    79   1      5.6399999999999935      60.159999999999982      46.999999999999986
    80   1      5.6399999999999935      60.159999999999982      50.759999999999998
    81   1      5.6399999999999935      60.159999999999982      54.519999999999989
    82   1      5.6399999999999935      60.159999999999982      58.279999999999987
    83   1      9.3999999999999986       39.47999999999999      41.359999999999992
    84   1      9.3999999999999986       39.47999999999999       45.11999999999999
    85   1      9.3999999999999986       39.47999999999999      48.879999999999995
    86   1      9.3999999999999986       39.47999999999999      52.639999999999986
    87   1      9.3999999999999986       39.47999999999999      56.399999999999984
    88   1      9.3999999999999986       39.47999999999999      60.159999999999982
    89   1      9.3999999999999986       39.47999999999999       63.91999999999998
    90   1      9.3999999999999986      41.359999999999992       39.47999999999999
    91   1      7.5199999999999951      41.359999999999992      41.359999999999992
    92   1      7.5199999999999951      43.239999999999988      43.239999999999988
    93   1      9.3999999999999986      41.359999999999992      43.239999999999988
    94   1      9.3999999999999986      43.239999999999988      41.359999999999992
    95   1      7.5199999999999951      41.359999999999992       45.11999999999999
    96   1      7.5199999999999951      43.239999999999988      46.999999999999986
    97   1      9.3999999999999986      41.359999999999992      46.999999999999986
    98   1      9.3999999999999986      43.239999999999988       45.11999999999999
    99   1      7.5199999999999951      41.359999999999992      48.879999999999995
   100   1      7.5199999999999951      43.239999999999988      50.759999999999998
   101   1      9.3999999999999986      41.359999999999992      50.759999999999998
   102   1      9.3999999999999986      43.239999999999988      48.879999999999995
   103   1      7.5199999999999951      41.359999999999992      52.639999999999986
   104   1      7.5199999999999951      43.239999999999988      54.519999999999989
   105   1      9.3999999999999986      41.359999999999992      54.519999999999989
   106   1      9.3999999999999986      43.239999999999988      52.639999999999986
   107   1      7.5199999999999951      41.359999999999992      56.399999999999984
   108   1      7.5199999999999951      43.239999999999988      58.279999999999987
   109   1      9.3999999999999986      41.359999999999992      58.279999999999987
   110   1      9.3999999999999986      43.239999999999988      56.399999999999984
   111   1      7.5199999999999951      41.359999999999992      60.159999999999982
   112   1      7.5199999999999951      43.239999999999988      62.039999999999985
   113   1      9.3999999999999986      41.359999999999992      62.039999999999985
   114   1      9.3999999999999986      43.239999999999988      60.159999999999982
   115   1      7.5199999999999951      41.359999999999992       63.91999999999998
   116   1      9.3999999999999986      41.359999999999992      65.799999999999983
   117   1      9.3999999999999986      43.239999999999988       63.91999999999998
   118   1      9.3999999999999986       45.11999999999999       39.47999999999999
   119   1      7.5199999999999951       45.11999999999999      41.359999999999992
   120   1      7.5199999999999951      46.999999999999986      43.239999999999988
   121   1      9.3999999999999986       45.11999999999999      43.239999999999988
   122   1      9.3999999999999986      46.999999999999986      41.359999999999992
   123   1      7.5199999999999951       45.11999999999999       45.11999999999999
   124   1      7.5199999999999951      46.999999999999986      46.999999999999986
   125   1      9.3999999999999986       45.11999999999999      46.999999999999986
   126   1      9.3999999999999986      46.999999999999986       45.11999999999999
   127   1      7.5199999999999951       45.11999999999999      48.879999999999995
   128   1      7.5199999999999951      46.999999999999986      50.759999999999998
   129   1      9.3999999999999986       45.11999999999999      50.759999999999998
   130   1      9.3999999999999986      46.999999999999986      48.879999999999995
   131   1      7.5199999999999951       45.11999999999999      52.639999999999986
   132   1      7.5199999999999951      46.999999999999986      54.519999999999989
   133   1      9.3999999999999986       45.11999999999999      54.519999999999989
   134   1      9.3999999999999986      46.999999999999986      52.639999999999986
   135   1      7.5199999999999951       45.11999999999999      56.399999999999984
   136   1      7.5199999999999951      46.999999999999986      58.279999999999987
   137   1      9.3999999999999986       45.11999999999999      58.279999999999987
   138   1      9.3999999999999986      46.999999999999986      56.399999999999984
   139   1      7.5199999999999951       45.11999999999999      60.159999999999982
   140   1      7.5199999999999951      46.999999999999986      62.039999999999985
   141   1      9.3999999999999986       45.11999999999999      62.039999999999985
   142   1      9.3999999999999986      46.999999999999986      60.159999999999982
   143   1      7.5199999999999951       45.11999999999999       63.91999999999998
   144   1      9.3999999999999986       45.11999999999999      65.799999999999983
   145   1      9.3999999999999986      46.999999999999986       63.91999999999998
   146   1      9.3999999999999986      48.879999999999995       39.47999999999999
   147   1      7.5199999999999951      48.879999999999995      41.359999999999992
   148   1      7.5199999999999951      50.759999999999998      43.239999999999988
   149   1      9.3999999999999986      48.879999999999995      43.239999999999988
   150   1      9.3999999999999986      50.759999999999998      41.359999999999992
   151   1      7.5199999999999951      48.879999999999995       45.11999999999999
   152   1      7.5199999999999951      50.759999999999998      46.999999999999986
   153   1      9.3999999999999986      48.879999999999995      46.999999999999986
   154   1      9.3999999999999986      50.759999999999998       45.11999999999999
   155   1      7.5199999999999951      48.879999999999995      48.879999999999995
   156   1      7.5199999999999951      50.759999999999998      50.759999999999998
   157   1      9.3999999999999986      48.879999999999995      50.759999999999998
   158   1      9.3999999999999986      50.759999999999998      48.879999999999995
   159   1      7.5199999999999951      48.879999999999995      52.639999999999986
   160   1      7.5199999999999951      50.759999999999998      54.519999999999989
   161   1      9.3999999999999986      48.879999999999995      54.519999999999989
   162   1      9.3999999999999986      50.759999999999998      52.639999999999986
   163   1      7.5199999999999951      48.879999999999995      56.399999999999984
   164   1      7.5199999999999951      50.759999999999998      58.279999999999987
   165   1      9.3999999999999986      48.879999999999995      58.279999999999987
   166   1      9.3999999999999986      50.759999999999998      56.399999999999984
   167   1      7.5199999999999951      48.879999999999995      60.159999999999982
   168   1      7.5199999999999951      50.759999999999998      62.039999999999985
   169   1      9.3999999999999986      48.879999999999995      62.039999999999985
   170   1      9.3999999999999986      50.759999999999998      60.159999999999982
   171   1      7.5199999999999951      48.879999999999995       63.91999999999998
   172   1      9.3999999999999986      48.879999999999995      65.799999999999983
   173   1      9.3999999999999986      50.759999999999998       63.91999999999998
   174   1      9.3999999999999986      52.639999999999986       39.47999999999999
   175   1      7.5199999999999951      52.639999999999986      41.359999999999992
   176   1      7.5199999999999951      54.519999999999989      43.239999999999988
   177   1      9.3999999999999986      52.639999999999986      43.239999999999988
   178   1      9.3999999999999986      54.519999999999989      41.359999999999992
   179   1      7.5199999999999951      52.639999999999986       45.11999999999999
   180   1      7.5199999999999951      54.519999999999989      46.999999999999986
   181   1      9.3999999999999986      52.639999999999986      46.999999999999986
   182   1      9.3999999999999986      54.519999999999989       45.11999999999999
   183   1      7.5199999999999951      52.639999999999986      48.879999999999995
   184   1      7.5199999999999951      54.519999999999989      50.759999999999998
   185   1      9.3999999999999986      52.639999999999986      50.759999999999998
   186   1      9.3999999999999986      54.519999999999989      48.879999999999995
   187   1      7.5199999999999951      52.639999999999986      52.639999999999986
   188   1      7.5199999999999951      54.519999999999989      54.519999999999989
   189   1      9.3999999999999986      52.639999999999986      54.519999999999989
   190   1      9.3999999999999986      54.519999999999989      52.639999999999986
   191   1      7.5199999999999951      52.639999999999986      56.399999999999984
   192   1      7.5199999999999951      54.519999999999989      58.279999999999987
   193   1      9.3999999999999986      52.639999999999986      58.279999999999987
   194   1      9.3999999999999986      54.519999999999989      56.399999999999984
   195   1      7.5199999999999951      52.639999999999986      60.159999999999982
   196   1      7.5199999999999951      54.519999999999989      62.039999999999985
   197   1      9.3999999999999986      52.639999999999986      62.039999999999985
   198   1      9.3999999999999986      54.519999999999989      60.159999999999982
   199   1      7.5199999999999951      52.639999999999986       63.91999999999998
   200   1      9.3999999999999986      52.639999999999986      65.799999999999983
   201   1      9.3999999999999986      54.519999999999989       63.91999999999998
   202   1      9.3999999999999986      56.399999999999984       39.47999999999999
   203   1      7.5199999999999951      56.399999999999984      41.359999999999992
   204   1      7.5199999999999951      58.279999999999987      43.239999999999988
   205   1      9.3999999999999986      56.399999999999984      43.239999999999988
   206   1      9.3999999999999986      58.279999999999987      41.359999999999992
   207   1      7.5199999999999951      56.399999999999984       45.11999999999999
   208   1      7.5199999999999951      58.279999999999987      46.999999999999986
   209   1      9.3999999999999986      56.399999999999984      46.999999999999986
   210   1      9.3999999999999986      58.279999999999987       45.11999999999999
   211   1      7.5199999999999951      56.399999999999984      48.879999999999995
   212   1      7.5199999999999951      58.279999999999987      50.759999999999998
   213   1      9.3999999999999986      56.399999999999984      50.759999999999998
   214   1      9.3999999999999986      58.279999999999987      48.879999999999995
   215   1      7.5199999999999951      56.399999999999984      52.639999999999986
   216   1      7.5199999999999951      58.279999999999987      54.519999999999989
   217   1      9.3999999999999986      56.399999999999984      54.519999999999989
   218   1      9.3999999999999986      58.279999999999987      52.639999999999986
   219   1      7.5199999999999951      56.399999999999984      56.399999999999984
   220   1      7.5199999999999951      58.279999999999987      58.279999999999987
   221   1      9.3999999999999986      56.399999999999984      58.279999999999987
   222   1      9.3999999999999986      58.279999999999987      56.399999999999984
   223   1      7.5199999999999951      56.399999999999984      60.159999999999982
   224   1      7.5199999999999951      58.279999999999987      62.039999999999985
   225   1      9.3999999999999986      56.399999999999984      62.039999999999985
   226   1      9.3999999999999986      58.279999999999987      60.159999999999982
   227   1      7.5199999999999951      56.399999999999984       63.91999999999998
   228   1      9.3999999999999986      56.399999999999984      65.799999999999983
   229   1      9.3999999999999986      58.279999999999987       63.91999999999998
   230   1      9.3999999999999986      60.159999999999982       39.47999999999999
   231   1      7.5199999999999951      60.159999999999982      41.359999999999992
   232   1      7.5199999999999951      62.039999999999985      43.239999999999988
   233   1      9.3999999999999986      60.159999999999982      43.239999999999988
   234   1      9.3999999999999986      62.039999999999985      41.359999999999992
   235   1      7.5199999999999951      60.159999999999982       45.11999999999999
   236   1      7.5199999999999951      62.039999999999985      46.999999999999986
   237   1      9.3999999999999986      60.159999999999982      46.999999999999986
   238   1      9.3999999999999986      62.039999999999985       45.11999999999999
   239   1      7.5199999999999951      60.159999999999982      48.879999999999995
   240   1      7.5199999999999951      62.039999999999985      50.759999999999998
   241   1      9.3999999999999986      60.159999999999982      50.759999999999998
   242   1      9.3999999999999986      62.039999999999985      48.879999999999995
   243   1      7.5199999999999951      60.159999999999982      52.639999999999986
   244   1      7.5199999999999951      62.039999999999985      54.519999999999989
   245   1      9.3999999999999986      60.159999999999982      54.519999999999989
   246   1      9.3999999999999986      62.039999999999985      52.639999999999986
   247   1      7.5199999999999951      60.159999999999982      56.399999999999984
   248   1      7.5199999999999951      62.039999999999985      58.279999999999987
   249   1      9.3999999999999986      60.159999999999982      58.279999999999987
   250   1      9.3999999999999986      62.039999999999985      56.399999999999984
   251   1      7.5199999999999951      60.159999999999982      60.159999999999982
   252   1      7.5199999999999951      62.039999999999985      62.039999999999985
   253   1      9.3999999999999986      60.159999999999982      62.039999999999985
   254   1      9.3999999999999986      62.039999999999985      60.159999999999982
   255   1      7.5199999999999951      60.159999999999982       63.91999999999998
   256   1      9.3999999999999986      60.159999999999982      65.799999999999983
   257   1      9.3999999999999986      62.039999999999985       63.91999999999998
   258   1      9.3999999999999986       63.91999999999998       39.47999999999999
   259   1      7.5199999999999951       63.91999999999998      41.359999999999992
   260   1      9.3999999999999986       63.91999999999998      43.239999999999988
   261   1      9.3999999999999986      65.799999999999983      41.359999999999992
   262   1      7.5199999999999951       63.91999999999998       45.11999999999999
   263   1      9.3999999999999986       63.91999999999998      46.999999999999986
   264   1      9.3999999999999986      65.799999999999983       45.11999999999999
   265   1      7.5199999999999951       63.91999999999998      48.879999999999995
   266   1      9.3999999999999986       63.91999999999998      50.759999999999998
   267   1      9.3999999999999986      65.799999999999983      48.879999999999995
   268   1      7.5199999999999951       63.91999999999998      52.639999999999986
   269   1      9.3999999999999986       63.91999999999998      54.519999999999989
   270   1      9.3999999999999986      65.799999999999983      52.639999999999986
   271   1      7.5199999999999951       63.91999999999998      56.399999999999984
   272   1      9.3999999999999986       63.91999999999998      58.279999999999987
   273   1      9.3999999999999986      65.799999999999983      56.399999999999984
   274   1      7.5199999999999951       63.91999999999998      60.159999999999982
   275   1      9.3999999999999986       63.91999999999998      62.039999999999985
   276   1      9.3999999999999986      65.799999999999983      60.159999999999982
   277   1      7.5199999999999951       63.91999999999998       63.91999999999998
   278   1      9.3999999999999986       63.91999999999998      65.799999999999983
   279   1      9.3999999999999986      65.799999999999983       63.91999999999998
   280   1      13.159999999999988      35.719999999999992      37.599999999999994
   281   1      13.159999999999988      35.719999999999992      41.359999999999992
   282   1      13.159999999999988      35.719999999999992       45.11999999999999
   283   1      13.159999999999988      35.719999999999992      48.879999999999995
   284   1      13.159999999999988      35.719999999999992      52.639999999999986
   285   1      13.159999999999988      35.719999999999992      56.399999999999984
   286   1      13.159999999999988      35.719999999999992      60.159999999999982
   287   1      13.159999999999988      35.719999999999992       63.91999999999998
   288   1      13.159999999999988      35.719999999999992      67.679999999999993
   289   1      13.159999999999988      37.599999999999994      35.719999999999992
   290   1      11.279999999999992      37.599999999999994      37.599999999999994
   291   1      11.279999999999992       39.47999999999999       39.47999999999999
   292   1      13.159999999999988      37.599999999999994       39.47999999999999
   293   1      13.159999999999988       39.47999999999999      37.599999999999994
   294   1      11.279999999999992      37.599999999999994      41.359999999999992
   295   1      11.279999999999992       39.47999999999999      43.239999999999988
   296   1      13.159999999999988      37.599999999999994      43.239999999999988
   297   1      13.159999999999988       39.47999999999999      41.359999999999992
   298   1      11.279999999999992      37.599999999999994       45.11999999999999
   299   1      11.279999999999992       39.47999999999999      46.999999999999986
   300   1      13.159999999999988      37.599999999999994      46.999999999999986
   301   1      13.159999999999988       39.47999999999999       45.11999999999999
   302   1      11.279999999999992      37.599999999999994      48.879999999999995
   303   1      11.279999999999992       39.47999999999999      50.759999999999998
   304   1      13.159999999999988      37.599999999999994      50.759999999999998
   305   1      13.159999999999988       39.47999999999999      48.879999999999995
   306   1      11.279999999999992      37.599999999999994      52.639999999999986
   307   1      11.279999999999992       39.47999999999999      54.519999999999989
   308   1      13.159999999999988      37.599999999999994      54.519999999999989
   309   1      13.159999999999988       39.47999999999999      52.639999999999986
   310   1      11.279999999999992      37.599999999999994      56.399999999999984
   311   1      11.279999999999992       39.47999999999999      58.279999999999987
   312   1      13.159999999999988      37.599999999999994      58.279999999999987
   313   1      13.159999999999988       39.47999999999999      56.399999999999984
   314   1      11.279999999999992      37.599999999999994      60.159999999999982
   315   1      11.279999999999992       39.47999999999999      62.039999999999985
   316   1      13.159999999999988      37.599999999999994      62.039999999999985
   317   1      13.159999999999988       39.47999999999999      60.159999999999982
   318   1      11.279999999999992      37.599999999999994       63.91999999999998
   319   1      11.279999999999992       39.47999999999999      65.799999999999983
   320   1      13.159999999999988      37.599999999999994      65.799999999999983
   321   1      13.159999999999988       39.47999999999999       63.91999999999998
   322   1      11.279999999999992      37.599999999999994      67.679999999999993
   323   1      13.159999999999988      37.599999999999994      69.559999999999974
   324   1      13.159999999999988       39.47999999999999      67.679999999999993
   325   1      13.159999999999988      41.359999999999992      35.719999999999992
   326   1      11.279999999999992      41.359999999999992      37.599999999999994
   327   1      11.279999999999992      43.239999999999988       39.47999999999999
   328   1      13.159999999999988      41.359999999999992       39.47999999999999
   329   1      13.159999999999988      43.239999999999988      37.599999999999994
   330   1      11.279999999999992      41.359999999999992      41.359999999999992
   331   1      11.279999999999992      43.239999999999988      43.239999999999988
   332   1      13.159999999999988      41.359999999999992      43.239999999999988
   333   1      13.159999999999988      43.239999999999988      41.359999999999992
   334   1      11.279999999999992      41.359999999999992       45.11999999999999
   335   1      11.279999999999992      43.239999999999988      46.999999999999986
   336   1      13.159999999999988      41.359999999999992      46.999999999999986
   337   1      13.159999999999988      43.239999999999988       45.11999999999999
   338   1      11.279999999999992      41.359999999999992      48.879999999999995
   339   1      11.279999999999992      43.239999999999988      50.759999999999998
   340   1      13.159999999999988      41.359999999999992      50.759999999999998
   341   1      13.159999999999988      43.239999999999988      48.879999999999995
   342   1      11.279999999999992      41.359999999999992      52.639999999999986
   343   1      11.279999999999992      43.239999999999988      54.519999999999989
   344   1      13.159999999999988      41.359999999999992      54.519999999999989
   345   1      13.159999999999988      43.239999999999988      52.639999999999986
   346   1      11.279999999999992      41.359999999999992      56.399999999999984
   347   1      11.279999999999992      43.239999999999988      58.279999999999987
   348   1      13.159999999999988      41.359999999999992      58.279999999999987
   349   1      13.159999999999988      43.239999999999988      56.399999999999984
   350   1      11.279999999999992      41.359999999999992      60.159999999999982
   351   1      11.279999999999992      43.239999999999988      62.039999999999985
   352   1      13.159999999999988      41.359999999999992      62.039999999999985
   353   1      13.159999999999988      43.239999999999988      60.159999999999982
   354   1      11.279999999999992      41.359999999999992       63.91999999999998
   355   1      11.279999999999992      43.239999999999988      65.799999999999983
   356   1      13.159999999999988      41.359999999999992      65.799999999999983
   357   1      13.159999999999988      43.239999999999988       63.91999999999998
   358   1      11.279999999999992      41.359999999999992      67.679999999999993