model_files/Au/Au_30000/Au_531/data.Au_531_fcc_29859 (written by ASE) 

29859 	 atoms 
1  atom types
0.0                     110  xlo xhi
0.0                     110  ylo yhi
0.0                     110  zlo zhi


Atoms 

     1   1      109.99999999999999      53.039999999999992      55.079999999999998
     2   1      109.99999999999999      55.079999999999998      53.039999999999992
     3   1      109.99999999999999      55.079999999999998      57.119999999999997
     4   1      109.99999999999999      57.119999999999997      55.079999999999998
     5   1      4.0799999999999912      46.919999999999987      53.039999999999992
     6   1      4.0799999999999912      48.959999999999994      50.999999999999993
     7   1      4.0799999999999912      46.919999999999987      57.119999999999997
     8   1      4.0799999999999912      48.959999999999994      55.079999999999998
     9   1      4.0799999999999912      48.959999999999994      59.159999999999989
    10   1      4.0799999999999912      50.999999999999993      48.959999999999994
    11   1      4.0799999999999912      53.039999999999992      46.919999999999987
    12   1       2.039999999999992      50.999999999999993      50.999999999999993
    13   1       2.039999999999992      53.039999999999992      53.039999999999992
    14   1      4.0799999999999912      50.999999999999993      53.039999999999992
    15   1      4.0799999999999912      53.039999999999992      50.999999999999993
    16   1       2.039999999999992      50.999999999999993      55.079999999999998
    17   1       2.039999999999992      53.039999999999992      57.119999999999997
    18   1      4.0799999999999912      50.999999999999993      57.119999999999997
    19   1      4.0799999999999912      53.039999999999992      55.079999999999998
    20   1       2.039999999999992      50.999999999999993      59.159999999999989
    21   1      4.0799999999999912      50.999999999999993      61.199999999999989
    22   1      4.0799999999999912      53.039999999999992      59.159999999999989
    23   1      4.0799999999999912      53.039999999999992      63.239999999999988
    24   1      4.0799999999999912      55.079999999999998      48.959999999999994
    25   1      4.0799999999999912      57.119999999999997      46.919999999999987
    26   1       2.039999999999992      55.079999999999998      50.999999999999993
    27   1       2.039999999999992      57.119999999999997      53.039999999999992
    28   1      4.0799999999999912      55.079999999999998      53.039999999999992
    29   1      4.0799999999999912      57.119999999999997      50.999999999999993
    30   1       2.039999999999992      55.079999999999998      55.079999999999998
    31   1       2.039999999999992      57.119999999999997      57.119999999999997
    32   1      4.0799999999999912      55.079999999999998      57.119999999999997
    33   1      4.0799999999999912      57.119999999999997      55.079999999999998
    34   1       2.039999999999992      55.079999999999998      59.159999999999989
    35   1      4.0799999999999912      55.079999999999998      61.199999999999989
    36   1      4.0799999999999912      57.119999999999997      59.159999999999989
    37   1      4.0799999999999912      57.119999999999997      63.239999999999988
    38   1      4.0799999999999912      59.159999999999989      48.959999999999994
    39   1       2.039999999999992      59.159999999999989      50.999999999999993
    40   1      4.0799999999999912      59.159999999999989      53.039999999999992
    41   1      4.0799999999999912      61.199999999999989      50.999999999999993
    42   1       2.039999999999992      59.159999999999989      55.079999999999998
    43   1      4.0799999999999912      59.159999999999989      57.119999999999997
    44   1      4.0799999999999912      61.199999999999989      55.079999999999998
    45   1       2.039999999999992      59.159999999999989      59.159999999999989
    46   1      4.0799999999999912      59.159999999999989      61.199999999999989
    47   1      4.0799999999999912      61.199999999999989      59.159999999999989
    48   1      4.0799999999999912      63.239999999999988      53.039999999999992
    49   1      4.0799999999999912      63.239999999999988      57.119999999999997
    50   1      8.1599999999999948       40.79999999999999      50.999999999999993
    51   1      8.1599999999999948       40.79999999999999      55.079999999999998
    52   1      8.1599999999999948       40.79999999999999      59.159999999999989
    53   1      8.1599999999999948      42.839999999999989      44.879999999999988
    54   1      8.1599999999999948      44.879999999999988      42.839999999999989
    55   1      6.1199999999999903      44.879999999999988      48.959999999999994
    56   1      8.1599999999999948      42.839999999999989      48.959999999999994
    57   1      8.1599999999999948      44.879999999999988      46.919999999999987
    58   1      6.1199999999999903      44.879999999999988      53.039999999999992
    59   1      8.1599999999999948      42.839999999999989      53.039999999999992
    60   1      8.1599999999999948      44.879999999999988      50.999999999999993
    61   1      6.1199999999999903      42.839999999999989      55.079999999999998
    62   1      6.1199999999999903      44.879999999999988      57.119999999999997
    63   1      8.1599999999999948      42.839999999999989      57.119999999999997
    64   1      8.1599999999999948      44.879999999999988      55.079999999999998
    65   1      6.1199999999999903      44.879999999999988      61.199999999999989
    66   1      8.1599999999999948      42.839999999999989      61.199999999999989
    67   1      8.1599999999999948      44.879999999999988      59.159999999999989
    68   1      8.1599999999999948      42.839999999999989      65.280000000000001
    69   1      8.1599999999999948      44.879999999999988      63.239999999999988
    70   1      8.1599999999999948      44.879999999999988      67.319999999999993
    71   1      6.1199999999999903      48.959999999999994      44.879999999999988
    72   1      8.1599999999999948      46.919999999999987      44.879999999999988
    73   1      8.1599999999999948      48.959999999999994      42.839999999999989
    74   1      6.1199999999999903      46.919999999999987      46.919999999999987
    75   1      6.1199999999999903      48.959999999999994      48.959999999999994
    76   1      8.1599999999999948      46.919999999999987      48.959999999999994
    77   1      8.1599999999999948      48.959999999999994      46.919999999999987
    78   1      6.1199999999999903      46.919999999999987      50.999999999999993
    79   1      6.1199999999999903      48.959999999999994      53.039999999999992
    80   1      8.1599999999999948      46.919999999999987      53.039999999999992
    81   1      8.1599999999999948      48.959999999999994      50.999999999999993
    82   1      6.1199999999999903      46.919999999999987      55.079999999999998
    83   1      6.1199999999999903      48.959999999999994      57.119999999999997
    84   1      8.1599999999999948      46.919999999999987      57.119999999999997
    85   1      8.1599999999999948      48.959999999999994      55.079999999999998
    86   1      6.1199999999999903      46.919999999999987      59.159999999999989
    87   1      6.1199999999999903      48.959999999999994      61.199999999999989
    88   1      8.1599999999999948      46.919999999999987      61.199999999999989
    89   1      8.1599999999999948      48.959999999999994      59.159999999999989
    90   1      6.1199999999999903      46.919999999999987      63.239999999999988
    91   1      6.1199999999999903      48.959999999999994      65.280000000000001
    92   1      8.1599999999999948      46.919999999999987      65.280000000000001
    93   1      8.1599999999999948      48.959999999999994      63.239999999999988
    94   1      8.1599999999999948      48.959999999999994      67.319999999999993
    95   1      8.1599999999999948      50.999999999999993       40.79999999999999
    96   1      6.1199999999999903      53.039999999999992      44.879999999999988
    97   1      8.1599999999999948      50.999999999999993      44.879999999999988
    98   1      8.1599999999999948      53.039999999999992      42.839999999999989
    99   1      6.1199999999999903      50.999999999999993      46.919999999999987
   100   1      6.1199999999999903      53.039999999999992      48.959999999999994
   101   1      8.1599999999999948      50.999999999999993      48.959999999999994
   102   1      8.1599999999999948      53.039999999999992      46.919999999999987
   103   1      6.1199999999999903      50.999999999999993      50.999999999999993
   104   1      6.1199999999999903      53.039999999999992      53.039999999999992
   105   1      8.1599999999999948      50.999999999999993      53.039999999999992
   106   1      8.1599999999999948      53.039999999999992      50.999999999999993
   107   1      6.1199999999999903      50.999999999999993      55.079999999999998
   108   1      6.1199999999999903      53.039999999999992      57.119999999999997
   109   1      8.1599999999999948      50.999999999999993      57.119999999999997
   110   1      8.1599999999999948      53.039999999999992      55.079999999999998
   111   1      6.1199999999999903      50.999999999999993      59.159999999999989
   112   1      6.1199999999999903      53.039999999999992      61.199999999999989
   113   1      8.1599999999999948      50.999999999999993      61.199999999999989
   114   1      8.1599999999999948      53.039999999999992      59.159999999999989
   115   1      6.1199999999999903      50.999999999999993      63.239999999999988
   116   1      6.1199999999999903      53.039999999999992      65.280000000000001
   117   1      8.1599999999999948      50.999999999999993      65.280000000000001
   118   1      8.1599999999999948      53.039999999999992      63.239999999999988
   119   1      8.1599999999999948      50.999999999999993      69.359999999999999
   120   1      8.1599999999999948      53.039999999999992      67.319999999999993
   121   1      8.1599999999999948      55.079999999999998       40.79999999999999
   122   1      6.1199999999999903      55.079999999999998      42.839999999999989
   123   1      6.1199999999999903      57.119999999999997      44.879999999999988
   124   1      8.1599999999999948      55.079999999999998      44.879999999999988
   125   1      8.1599999999999948      57.119999999999997      42.839999999999989
   126   1      6.1199999999999903      55.079999999999998      46.919999999999987
   127   1      6.1199999999999903      57.119999999999997      48.959999999999994
   128   1      8.1599999999999948      55.079999999999998      48.959999999999994
   129   1      8.1599999999999948      57.119999999999997      46.919999999999987
   130   1      6.1199999999999903      55.079999999999998      50.999999999999993
   131   1      6.1199999999999903      57.119999999999997      53.039999999999992
   132   1      8.1599999999999948      55.079999999999998      53.039999999999992
   133   1      8.1599999999999948      57.119999999999997      50.999999999999993
   134   1      6.1199999999999903      55.079999999999998      55.079999999999998
   135   1      6.1199999999999903      57.119999999999997      57.119999999999997
   136   1      8.1599999999999948      55.079999999999998      57.119999999999997
   137   1      8.1599999999999948      57.119999999999997      55.079999999999998
   138   1      6.1199999999999903      55.079999999999998      59.159999999999989
   139   1      6.1199999999999903      57.119999999999997      61.199999999999989
   140   1      8.1599999999999948      55.079999999999998      61.199999999999989
   141   1      8.1599999999999948      57.119999999999997      59.159999999999989
   142   1      6.1199999999999903      55.079999999999998      63.239999999999988
   143   1      6.1199999999999903      57.119999999999997      65.280000000000001
   144   1      8.1599999999999948      55.079999999999998      65.280000000000001
   145   1      8.1599999999999948      57.119999999999997      63.239999999999988
   146   1      6.1199999999999903      55.079999999999998      67.319999999999993
   147   1      8.1599999999999948      55.079999999999998      69.359999999999999
   148   1      8.1599999999999948      57.119999999999997      67.319999999999993
   149   1      8.1599999999999948      59.159999999999989       40.79999999999999
   150   1      6.1199999999999903      61.199999999999989      44.879999999999988
   151   1      8.1599999999999948      59.159999999999989      44.879999999999988
   152   1      8.1599999999999948      61.199999999999989      42.839999999999989
   153   1      6.1199999999999903      59.159999999999989      46.919999999999987
   154   1      6.1199999999999903      61.199999999999989      48.959999999999994
   155   1      8.1599999999999948      59.159999999999989      48.959999999999994
   156   1      8.1599999999999948      61.199999999999989      46.919999999999987
   157   1      6.1199999999999903      59.159999999999989      50.999999999999993
   158   1      6.1199999999999903      61.199999999999989      53.039999999999992
   159   1      8.1599999999999948      59.159999999999989      53.039999999999992
   160   1      8.1599999999999948      61.199999999999989      50.999999999999993
   161   1      6.1199999999999903      59.159999999999989      55.079999999999998
   162   1      6.1199999999999903      61.199999999999989      57.119999999999997
   163   1      8.1599999999999948      59.159999999999989      57.119999999999997
   164   1      8.1599999999999948      61.199999999999989      55.079999999999998
   165   1      6.1199999999999903      59.159999999999989      59.159999999999989
   166   1      6.1199999999999903      61.199999999999989      61.199999999999989
   167   1      8.1599999999999948      59.159999999999989      61.199999999999989
   168   1      8.1599999999999948      61.199999999999989      59.159999999999989
   169   1      6.1199999999999903      59.159999999999989      63.239999999999988
   170   1      6.1199999999999903      61.199999999999989      65.280000000000001
   171   1      8.1599999999999948      59.159999999999989      65.280000000000001
   172   1      8.1599999999999948      61.199999999999989      63.239999999999988
   173   1      8.1599999999999948      59.159999999999989      69.359999999999999
   174   1      8.1599999999999948      61.199999999999989      67.319999999999993
   175   1      8.1599999999999948      63.239999999999988      44.879999999999988
   176   1      8.1599999999999948      65.280000000000001      42.839999999999989
   177   1      6.1199999999999903      63.239999999999988      46.919999999999987
   178   1      6.1199999999999903      65.280000000000001      48.959999999999994
   179   1      8.1599999999999948      63.239999999999988      48.959999999999994
   180   1      8.1599999999999948      65.280000000000001      46.919999999999987
   181   1      6.1199999999999903      63.239999999999988      50.999999999999993
   182   1      6.1199999999999903      65.280000000000001      53.039999999999992
   183   1      8.1599999999999948      63.239999999999988      53.039999999999992
   184   1      8.1599999999999948      65.280000000000001      50.999999999999993
   185   1      6.1199999999999903      63.239999999999988      55.079999999999998
   186   1      6.1199999999999903      65.280000000000001      57.119999999999997
   187   1      8.1599999999999948      63.239999999999988      57.119999999999997
   188   1      8.1599999999999948      65.280000000000001      55.079999999999998
   189   1      6.1199999999999903      63.239999999999988      59.159999999999989
   190   1      6.1199999999999903      65.280000000000001      61.199999999999989
   191   1      8.1599999999999948      63.239999999999988      61.199999999999989
   192   1      8.1599999999999948      65.280000000000001      59.159999999999989
   193   1      6.1199999999999903      63.239999999999988      63.239999999999988
   194   1      8.1599999999999948      63.239999999999988      65.280000000000001
   195   1      8.1599999999999948      65.280000000000001      63.239999999999988
   196   1      8.1599999999999948      65.280000000000001      67.319999999999993
   197   1      8.1599999999999948      67.319999999999993      44.879999999999988
   198   1      8.1599999999999948      67.319999999999993      48.959999999999994
   199   1      8.1599999999999948      67.319999999999993      53.039999999999992
   200   1      8.1599999999999948      69.359999999999999      50.999999999999993
   201   1      6.1199999999999903      67.319999999999993      55.079999999999998
   202   1      8.1599999999999948      67.319999999999993      57.119999999999997
   203   1      8.1599999999999948      69.359999999999999      55.079999999999998
   204   1      8.1599999999999948      67.319999999999993      61.199999999999989
   205   1      8.1599999999999948      69.359999999999999      59.159999999999989
   206   1      8.1599999999999948      67.319999999999993      65.280000000000001
   207   1      12.239999999999993      32.639999999999993      55.079999999999998
   208   1      12.239999999999993      36.719999999999992      42.839999999999989
   209   1      12.239999999999993      34.679999999999993      48.959999999999994
   210   1      12.239999999999993      36.719999999999992      46.919999999999987
   211   1      10.199999999999996      36.719999999999992      53.039999999999992
   212   1      12.239999999999993      34.679999999999993      53.039999999999992
   213   1      12.239999999999993      36.719999999999992      50.999999999999993
   214   1      10.199999999999996      36.719999999999992      57.119999999999997
   215   1      12.239999999999993      34.679999999999993      57.119999999999997
   216   1      12.239999999999993      36.719999999999992      55.079999999999998
   217   1      12.239999999999993      34.679999999999993      61.199999999999989
   218   1      12.239999999999993      36.719999999999992      59.159999999999989
   219   1      12.239999999999993      36.719999999999992      63.239999999999988
   220   1      12.239999999999993      36.719999999999992      67.319999999999993
   221   1      10.199999999999996       40.79999999999999       40.79999999999999
   222   1      12.239999999999993      38.759999999999991       40.79999999999999
   223   1      12.239999999999993       40.79999999999999      38.759999999999991
   224   1      10.199999999999996       40.79999999999999      44.879999999999988
   225   1      12.239999999999993      38.759999999999991      44.879999999999988
   226   1      12.239999999999993       40.79999999999999      42.839999999999989
   227   1      10.199999999999996      38.759999999999991      46.919999999999987
   228   1      10.199999999999996       40.79999999999999      48.959999999999994
   229   1      12.239999999999993      38.759999999999991      48.959999999999994
   230   1      12.239999999999993       40.79999999999999      46.919999999999987
   231   1      10.199999999999996      38.759999999999991      50.999999999999993
   232   1      10.199999999999996       40.79999999999999      53.039999999999992
   233   1      12.239999999999993      38.759999999999991      53.039999999999992
   234   1      12.239999999999993       40.79999999999999      50.999999999999993
   235   1      10.199999999999996      38.759999999999991      55.079999999999998
   236   1      10.199999999999996       40.79999999999999      57.119999999999997
   237   1      12.239999999999993      38.759999999999991      57.119999999999997
   238   1      12.239999999999993       40.79999999999999      55.079999999999998
   239   1      10.199999999999996      38.759999999999991      59.159999999999989
   240   1      10.199999999999996       40.79999999999999      61.199999999999989
   241   1      12.239999999999993      38.759999999999991      61.199999999999989
   242   1      12.239999999999993       40.79999999999999      59.159999999999989
   243   1      10.199999999999996      38.759999999999991      63.239999999999988
   244   1      10.199999999999996       40.79999999999999      65.280000000000001
   245   1      12.239999999999993      38.759999999999991      65.280000000000001
   246   1      12.239999999999993       40.79999999999999      63.239999999999988
   247   1      10.199999999999996       40.79999999999999      69.359999999999999
   248   1      12.239999999999993      38.759999999999991      69.359999999999999
   249   1      12.239999999999993       40.79999999999999      67.319999999999993
   250   1      12.239999999999993       40.79999999999999      71.399999999999977
   251   1      12.239999999999993      42.839999999999989      36.719999999999992
   252   1      10.199999999999996      44.879999999999988       40.79999999999999
   253   1      12.239999999999993      42.839999999999989       40.79999999999999
   254   1      12.239999999999993      44.879999999999988      38.759999999999991
   255   1      10.199999999999996      42.839999999999989      42.839999999999989
   256   1      10.199999999999996      44.879999999999988      44.879999999999988
   257   1      12.239999999999993      42.839999999999989      44.879999999999988
   258   1      12.239999999999993      44.879999999999988      42.839999999999989
   259   1      10.199999999999996      42.839999999999989      46.919999999999987
   260   1      10.199999999999996      44.879999999999988      48.959999999999994
   261   1      12.239999999999993      42.839999999999989      48.959999999999994
   262   1      12.239999999999993      44.879999999999988      46.919999999999987
   263   1      10.199999999999996      42.839999999999989      50.999999999999993
   264   1      10.199999999999996      44.879999999999988      53.039999999999992
   265   1      12.239999999999993      42.839999999999989      53.039999999999992
   266   1      12.239999999999993      44.879999999999988      50.999999999999993
   267   1      10.199999999999996      42.839999999999989      55.079999999999998
   268   1      10.199999999999996      44.879999999999988      57.119999999999997
   269   1      12.239999999999993      42.839999999999989      57.119999999999997
   270   1      12.239999999999993      44.879999999999988      55.079999999999998
   271   1      10.199999999999996      42.839999999999989      59.159999999999989
   272   1      10.199999999999996      44.879999999999988      61.199999999999989
   273   1      12.239999999999993      42.839999999999989      61.199999999999989
   274   1      12.239999999999993      44.879999999999988      59.159999999999989
   275   1      10.199999999999996      42.839999999999989      63.239999999999988
   276   1      10.199999999999996      44.879999999999988      65.280000000000001
   277   1      12.239999999999993      42.839999999999989      65.280000000000001
   278   1      12.239999999999993      44.879999999999988      63.239999999999988
   279   1      10.199999999999996      42.839999999999989      67.319999999999993
   280   1      10.199999999999996      44.879999999999988      69.359999999999999
   281   1      12.239999999999993      42.839999999999989      69.359999999999999
   282   1      12.239999999999993      44.879999999999988      67.319999999999993
   283   1      12.239999999999993      42.839999999999989      73.439999999999998
   284   1      12.239999999999993      44.879999999999988      71.399999999999977
   285   1      12.239999999999993      46.919999999999987      36.719999999999992
   286   1      12.239999999999993      48.959999999999994      34.679999999999993
   287   1      10.199999999999996      46.919999999999987      38.759999999999991
   288   1      10.199999999999996      48.959999999999994       40.79999999999999
   289   1      12.239999999999993      46.919999999999987       40.79999999999999
   290   1      12.239999999999993      48.959999999999994      38.759999999999991
   291   1      10.199999999999996      46.919999999999987      42.839999999999989
   292   1      10.199999999999996      48.959999999999994      44.879999999999988
   293   1      12.239999999999993      46.919999999999987      44.879999999999988
   294   1      12.239999999999993      48.959999999999994      42.839999999999989
   295   1      10.199999999999996      46.919999999999987      46.919999999999987
   296   1      10.199999999999996      48.959999999999994      48.959999999999994
   297   1      12.239999999999993      46.919999999999987      48.959999999999994
   298   1      12.239999999999993      48.959999999999994      46.919999999999987
   299   1      10.199999999999996      46.919999999999987      50.999999999999993
   300   1      10.199999999999996      48.959999999999994      53.039999999999992
   301   1      12.239999999999993      46.919999999999987      53.039999999999992
   302   1      12.239999999999993      48.959999999999994      50.999999999999993
   303   1      10.199999999999996      46.919999999999987      55.079999999999998
   304   1      10.199999999999996      48.959999999999994      57.119999999999997
   305   1      12.239999999999993      46.919999999999987      57.119999999999997
   306   1      12.239999999999993      48.959999999999994      55.079999999999998
   307   1      10.199999999999996      46.919999999999987      59.159999999999989
   308   1      10.199999999999996      48.959999999999994      61.199999999999989
   309   1      12.239999999999993      46.919999999999987      61.199999999999989
   310   1      12.239999999999993      48.959999999999994      59.159999999999989
   311   1      10.199999999999996      46.919999999999987      63.239999999999988
   312   1      10.199999999999996      48.959999999999994      65.280000000000001
   313   1      12.239999999999993      46.919999999999987      65.280000000000001
   314   1      12.239999999999993      48.959999999999994      63.239999999999988
   315   1      10.199999999999996      46.919999999999987      67.319999999999993
   316   1      10.199999999999996      48.959999999999994      69.359999999999999
   317   1      12.239999999999993      46.919999999999987      69.359999999999999
   318   1      12.239999999999993      48.959999999999994      67.319999999999993
   319   1      10.199999999999996      46.919999999999987      71.399999999999977
   320   1      12.239999999999993      46.919999999999987      73.439999999999998
   321   1      12.239999999999993      48.959999999999994      71.399999999999977
   322   1      12.239999999999993      48.959999999999994      75.479999999999976
   323   1      10.199999999999996      53.039999999999992      36.719999999999992
   324   1      12.239999999999993      50.999999999999993      36.719999999999992
   325   1      12.239999999999993      53.039999999999992      34.679999999999993
   326   1      10.199999999999996      50.999999999999993      38.759999999999991
   327   1      10.199999999999996      53.039999999999992       40.79999999999999
   328   1      12.239999999999993      50.999999999999993       40.79999999999999
   329   1      12.239999999999993      53.039999999999992      38.759999999999991
   330   1      10.199999999999996      50.999999999999993      42.839999999999989
   331   1      10.199999999999996      53.039999999999992      44.879999999999988
   332   1      12.239999999999993      50.999999999999993      44.879999999999988
   333   1      12.239999999999993      53.039999999999992      42.839999999999989
   334   1      10.199999999999996      50.999999999999993      46.919999999999987
   335   1      10.199999999999996      53.039999999999992      48.959999999999994
   336   1      12.239999999999993      50.999999999999993      48.959999999999994
   337   1      12.239999999999993      53.039999999999992      46.919999999999987
   338   1      10.199999999999996      50.999999999999993      50.999999999999993
   339   1      10.199999999999996      53.039999999999992      53.039999999999992
   340   1      12.239999999999993      50.999999999999993      53.039999999999992
   341   1      12.239999999999993      53.039999999999992      50.999999999999993
   342   1      10.199999999999996      50.999999999999993      55.079999999999998
   343   1      10.199999999999996      53.039999999999992      57.119999999999997
   344   1      12.239999999999993      50.999999999999993      57.119999999999997
   345   1      12.239999999999993      53.039999999999992      55.079999999999998
   346   1      10.199999999999996      50.999999999999993      59.159999999999989
   347   1      10.199999999999996      53.039999999999992      61.199999999999989
   348   1      12.239999999999993      50.999999999999993      61.199999999999989
   349   1      12.239999999999993      53.039999999999992      59.159999999999989
   350   1      10.199999999999996      50.999999999999993      63.239999999999988
   351   1      10.199999999999996      53.039999999999992      65.280000000000001
   352   1      12.239999999999993      50.999999999999993      65.280000000000001
   353   1      12.239999999999993      53.039999999999992      63.239999999999988
   354   1      10.199999999999996      50.999999999999993      67.319999999999993
   355   1      10.199999999999996      53.039999999999992      69.359999999999999
   356   1      12.239999999999993      50.999999999999993      69.359999999999999
   357   1      12.239999999999993      53.039999999999992      67.319999999999993
   358   1      10.199999999999996      50.999999999999993      71.399999999999977