model_files/Co/Co_3000/Co_521/data.Co_521_hcp_3007 (written by ASE) 

3007 	 atoms 
1  atom types
0.0                      29  xlo xhi
0.0                      29  ylo yhi
0.0                      29  zlo zhi


Atoms 

     1   1                       0      12.550000000000001      13.804999999999998
     2   1                       0      13.804999999999998      12.550000000000001
     3   1                       0      13.804999999999998                   15.06
     4   1                       0                   15.06      13.804999999999998
     5   1      2.5100000000000016      5.0199999999999996      13.804999999999998
     6   1      2.5100000000000016      7.5300000000000011      8.7850000000000001
     7   1      2.5100000000000016      6.2750000000000004      12.550000000000001
     8   1      2.5100000000000016      7.5300000000000011                  11.295
     9   1      2.5100000000000016      6.2750000000000004                   15.06
    10   1      2.5100000000000016      7.5300000000000011      13.804999999999998
    11   1      2.5100000000000016      7.5300000000000011      16.315000000000001
    12   1      2.5100000000000016      7.5300000000000011      18.824999999999999
    13   1      2.5100000000000016      8.7850000000000001      7.5300000000000011
    14   1      1.2550000000000008      10.039999999999999      10.039999999999999
    15   1      2.5100000000000016      8.7850000000000001      10.039999999999999
    16   1      2.5100000000000016      10.039999999999999      8.7850000000000001
    17   1      1.2550000000000008      10.039999999999999      12.550000000000001
    18   1      2.5100000000000016      8.7850000000000001      12.550000000000001
    19   1      2.5100000000000016      10.039999999999999                  11.295
    20   1      1.2550000000000008      8.7850000000000001      13.804999999999998
    21   1      1.2550000000000008      10.039999999999999                   15.06
    22   1      2.5100000000000016      8.7850000000000001                   15.06
    23   1      2.5100000000000016      10.039999999999999      13.804999999999998
    24   1      1.2550000000000008      10.039999999999999                   17.57
    25   1      2.5100000000000016      8.7850000000000001                   17.57
    26   1      2.5100000000000016      10.039999999999999      16.315000000000001
    27   1      2.5100000000000016      8.7850000000000001      20.079999999999998
    28   1      2.5100000000000016      10.039999999999999      18.824999999999999
    29   1      2.5100000000000016                  11.295      7.5300000000000011
    30   1      2.5100000000000016      12.550000000000001      6.2750000000000004
    31   1      1.2550000000000008      12.550000000000001      10.039999999999999
    32   1      2.5100000000000016                  11.295      10.039999999999999
    33   1      2.5100000000000016      12.550000000000001      8.7850000000000001
    34   1      1.2550000000000008                  11.295                  11.295
    35   1      1.2550000000000008      12.550000000000001      12.550000000000001
    36   1      2.5100000000000016                  11.295      12.550000000000001
    37   1      2.5100000000000016      12.550000000000001                  11.295
    38   1      1.2550000000000008                  11.295      13.804999999999998
    39   1      1.2550000000000008      12.550000000000001                   15.06
    40   1      2.5100000000000016                  11.295                   15.06
    41   1      2.5100000000000016      12.550000000000001      13.804999999999998
    42   1      1.2550000000000008                  11.295      16.315000000000001
    43   1      1.2550000000000008      12.550000000000001                   17.57
    44   1      2.5100000000000016                  11.295                   17.57
    45   1      2.5100000000000016      12.550000000000001      16.315000000000001
    46   1      2.5100000000000016                  11.295      20.079999999999998
    47   1      2.5100000000000016      12.550000000000001      18.824999999999999
    48   1      2.5100000000000016      12.550000000000001      21.334999999999997
    49   1      2.5100000000000016      13.804999999999998      5.0199999999999996
    50   1      2.5100000000000016      13.804999999999998      7.5300000000000011
    51   1      2.5100000000000016                   15.06      6.2750000000000004
    52   1      1.2550000000000008      13.804999999999998      8.7850000000000001
    53   1      1.2550000000000008                   15.06      10.039999999999999
    54   1      2.5100000000000016      13.804999999999998      10.039999999999999
    55   1      2.5100000000000016                   15.06      8.7850000000000001
    56   1      1.2550000000000008      13.804999999999998                  11.295
    57   1      1.2550000000000008                   15.06      12.550000000000001
    58   1      2.5100000000000016      13.804999999999998      12.550000000000001
    59   1      2.5100000000000016                   15.06                  11.295
    60   1      1.2550000000000008      13.804999999999998      13.804999999999998
    61   1      1.2550000000000008                   15.06                   15.06
    62   1      2.5100000000000016      13.804999999999998                   15.06
    63   1      2.5100000000000016                   15.06      13.804999999999998
    64   1      1.2550000000000008      13.804999999999998      16.315000000000001
    65   1      1.2550000000000008                   15.06                   17.57
    66   1      2.5100000000000016      13.804999999999998                   17.57
    67   1      2.5100000000000016                   15.06      16.315000000000001
    68   1      1.2550000000000008      13.804999999999998      18.824999999999999
    69   1      2.5100000000000016      13.804999999999998      20.079999999999998
    70   1      2.5100000000000016                   15.06      18.824999999999999
    71   1      2.5100000000000016      13.804999999999998      22.589999999999996
    72   1      2.5100000000000016                   15.06      21.334999999999997
    73   1      2.5100000000000016      16.315000000000001      7.5300000000000011
    74   1      1.2550000000000008                   17.57      10.039999999999999
    75   1      2.5100000000000016      16.315000000000001      10.039999999999999
    76   1      2.5100000000000016                   17.57      8.7850000000000001
    77   1      1.2550000000000008      16.315000000000001                  11.295
    78   1      1.2550000000000008                   17.57      12.550000000000001
    79   1      2.5100000000000016      16.315000000000001      12.550000000000001
    80   1      2.5100000000000016                   17.57                  11.295
    81   1      1.2550000000000008      16.315000000000001      13.804999999999998
    82   1      1.2550000000000008                   17.57                   15.06
    83   1      2.5100000000000016      16.315000000000001                   15.06
    84   1      2.5100000000000016                   17.57      13.804999999999998
    85   1      1.2550000000000008      16.315000000000001      16.315000000000001
    86   1      1.2550000000000008                   17.57                   17.57
    87   1      2.5100000000000016      16.315000000000001                   17.57
    88   1      2.5100000000000016                   17.57      16.315000000000001
    89   1      2.5100000000000016      16.315000000000001      20.079999999999998
    90   1      2.5100000000000016                   17.57      18.824999999999999
    91   1      2.5100000000000016      18.824999999999999      7.5300000000000011
    92   1      2.5100000000000016      18.824999999999999      10.039999999999999
    93   1      2.5100000000000016      20.079999999999998      8.7850000000000001
    94   1      2.5100000000000016      18.824999999999999      12.550000000000001
    95   1      2.5100000000000016      20.079999999999998                  11.295
    96   1      1.2550000000000008      18.824999999999999      13.804999999999998
    97   1      2.5100000000000016      18.824999999999999                   15.06
    98   1      2.5100000000000016      20.079999999999998      13.804999999999998
    99   1      2.5100000000000016      18.824999999999999                   17.57
   100   1      2.5100000000000016      20.079999999999998      16.315000000000001
   101   1      2.5100000000000016      18.824999999999999      20.079999999999998
   102   1      2.5100000000000016      20.079999999999998      18.824999999999999
   103   1      2.5100000000000016      21.334999999999997      12.550000000000001
   104   1      2.5100000000000016      21.334999999999997                   15.06
   105   1      2.5100000000000016      22.589999999999996      13.804999999999998
   106   1      5.0199999999999996      2.5100000000000016      13.804999999999998
   107   1      3.7650000000000006      5.0199999999999996      7.5300000000000011
   108   1      5.0199999999999996      3.7650000000000006      7.5300000000000011
   109   1      5.0199999999999996      5.0199999999999996      6.2750000000000004
   110   1      3.7650000000000006      5.0199999999999996      10.039999999999999
   111   1      5.0199999999999996      3.7650000000000006      10.039999999999999
   112   1      5.0199999999999996      5.0199999999999996      8.7850000000000001
   113   1      3.7650000000000006      3.7650000000000006                  11.295
   114   1      3.7650000000000006      5.0199999999999996      12.550000000000001
   115   1      5.0199999999999996      3.7650000000000006      12.550000000000001
   116   1      5.0199999999999996      5.0199999999999996                  11.295
   117   1      3.7650000000000006      3.7650000000000006      13.804999999999998
   118   1      3.7650000000000006      5.0199999999999996                   15.06
   119   1      5.0199999999999996      3.7650000000000006                   15.06
   120   1      5.0199999999999996      5.0199999999999996      13.804999999999998
   121   1      3.7650000000000006      3.7650000000000006      16.315000000000001
   122   1      3.7650000000000006      5.0199999999999996                   17.57
   123   1      5.0199999999999996      3.7650000000000006                   17.57
   124   1      5.0199999999999996      5.0199999999999996      16.315000000000001
   125   1      3.7650000000000006      5.0199999999999996      20.079999999999998
   126   1      5.0199999999999996      3.7650000000000006      20.079999999999998
   127   1      5.0199999999999996      5.0199999999999996      18.824999999999999
   128   1      5.0199999999999996      5.0199999999999996      21.334999999999997
   129   1      3.7650000000000006      7.5300000000000011      5.0199999999999996
   130   1      5.0199999999999996      6.2750000000000004      5.0199999999999996
   131   1      5.0199999999999996      7.5300000000000011      3.7650000000000006
   132   1      3.7650000000000006      6.2750000000000004      6.2750000000000004
   133   1      3.7650000000000006      7.5300000000000011      7.5300000000000011
   134   1      5.0199999999999996      6.2750000000000004      7.5300000000000011
   135   1      5.0199999999999996      7.5300000000000011      6.2750000000000004
   136   1      3.7650000000000006      6.2750000000000004      8.7850000000000001
   137   1      3.7650000000000006      7.5300000000000011      10.039999999999999
   138   1      5.0199999999999996      6.2750000000000004      10.039999999999999
   139   1      5.0199999999999996      7.5300000000000011      8.7850000000000001
   140   1      3.7650000000000006      6.2750000000000004                  11.295
   141   1      3.7650000000000006      7.5300000000000011      12.550000000000001
   142   1      5.0199999999999996      6.2750000000000004      12.550000000000001
   143   1      5.0199999999999996      7.5300000000000011                  11.295
   144   1      3.7650000000000006      6.2750000000000004      13.804999999999998
   145   1      3.7650000000000006      7.5300000000000011                   15.06
   146   1      5.0199999999999996      6.2750000000000004                   15.06
   147   1      5.0199999999999996      7.5300000000000011      13.804999999999998
   148   1      3.7650000000000006      6.2750000000000004      16.315000000000001
   149   1      3.7650000000000006      7.5300000000000011                   17.57
   150   1      5.0199999999999996      6.2750000000000004                   17.57
   151   1      5.0199999999999996      7.5300000000000011      16.315000000000001
   152   1      3.7650000000000006      6.2750000000000004      18.824999999999999
   153   1      3.7650000000000006      7.5300000000000011      20.079999999999998
   154   1      5.0199999999999996      6.2750000000000004      20.079999999999998
   155   1      5.0199999999999996      7.5300000000000011      18.824999999999999
   156   1      3.7650000000000006      6.2750000000000004      21.334999999999997
   157   1      3.7650000000000006      7.5300000000000011      22.589999999999996
   158   1      5.0199999999999996      6.2750000000000004      22.589999999999996
   159   1      5.0199999999999996      7.5300000000000011      21.334999999999997
   160   1      5.0199999999999996      7.5300000000000011      23.844999999999999
   161   1      3.7650000000000006      10.039999999999999      5.0199999999999996
   162   1      5.0199999999999996      8.7850000000000001      5.0199999999999996
   163   1      5.0199999999999996      10.039999999999999      3.7650000000000006
   164   1      3.7650000000000006      8.7850000000000001      6.2750000000000004
   165   1      3.7650000000000006      10.039999999999999      7.5300000000000011
   166   1      5.0199999999999996      8.7850000000000001      7.5300000000000011
   167   1      5.0199999999999996      10.039999999999999      6.2750000000000004
   168   1      3.7650000000000006      8.7850000000000001      8.7850000000000001
   169   1      3.7650000000000006      10.039999999999999      10.039999999999999
   170   1      5.0199999999999996      8.7850000000000001      10.039999999999999
   171   1      5.0199999999999996      10.039999999999999      8.7850000000000001
   172   1      3.7650000000000006      8.7850000000000001                  11.295
   173   1      3.7650000000000006      10.039999999999999      12.550000000000001
   174   1      5.0199999999999996      8.7850000000000001      12.550000000000001
   175   1      5.0199999999999996      10.039999999999999                  11.295
   176   1      3.7650000000000006      8.7850000000000001      13.804999999999998
   177   1      3.7650000000000006      10.039999999999999                   15.06
   178   1      5.0199999999999996      8.7850000000000001                   15.06
   179   1      5.0199999999999996      10.039999999999999      13.804999999999998
   180   1      3.7650000000000006      8.7850000000000001      16.315000000000001
   181   1      3.7650000000000006      10.039999999999999                   17.57
   182   1      5.0199999999999996      8.7850000000000001                   17.57
   183   1      5.0199999999999996      10.039999999999999      16.315000000000001
   184   1      3.7650000000000006      8.7850000000000001      18.824999999999999
   185   1      3.7650000000000006      10.039999999999999      20.079999999999998
   186   1      5.0199999999999996      8.7850000000000001      20.079999999999998
   187   1      5.0199999999999996      10.039999999999999      18.824999999999999
   188   1      3.7650000000000006      8.7850000000000001      21.334999999999997
   189   1      3.7650000000000006      10.039999999999999      22.589999999999996
   190   1      5.0199999999999996      8.7850000000000001      22.589999999999996
   191   1      5.0199999999999996      10.039999999999999      21.334999999999997
   192   1      5.0199999999999996      10.039999999999999      23.844999999999999
   193   1      3.7650000000000006                  11.295      3.7650000000000006
   194   1      3.7650000000000006      12.550000000000001      5.0199999999999996
   195   1      5.0199999999999996                  11.295      5.0199999999999996
   196   1      5.0199999999999996      12.550000000000001      3.7650000000000006
   197   1      3.7650000000000006                  11.295      6.2750000000000004
   198   1      3.7650000000000006      12.550000000000001      7.5300000000000011
   199   1      5.0199999999999996                  11.295      7.5300000000000011
   200   1      5.0199999999999996      12.550000000000001      6.2750000000000004
   201   1      3.7650000000000006                  11.295      8.7850000000000001
   202   1      3.7650000000000006      12.550000000000001      10.039999999999999
   203   1      5.0199999999999996                  11.295      10.039999999999999
   204   1      5.0199999999999996      12.550000000000001      8.7850000000000001
   205   1      3.7650000000000006                  11.295                  11.295
   206   1      3.7650000000000006      12.550000000000001      12.550000000000001
   207   1      5.0199999999999996                  11.295      12.550000000000001
   208   1      5.0199999999999996      12.550000000000001                  11.295
   209   1      3.7650000000000006                  11.295      13.804999999999998
   210   1      3.7650000000000006      12.550000000000001                   15.06
   211   1      5.0199999999999996                  11.295                   15.06
   212   1      5.0199999999999996      12.550000000000001      13.804999999999998
   213   1      3.7650000000000006                  11.295      16.315000000000001
   214   1      3.7650000000000006      12.550000000000001                   17.57
   215   1      5.0199999999999996                  11.295                   17.57
   216   1      5.0199999999999996      12.550000000000001      16.315000000000001
   217   1      3.7650000000000006                  11.295      18.824999999999999
   218   1      3.7650000000000006      12.550000000000001      20.079999999999998
   219   1      5.0199999999999996                  11.295      20.079999999999998
   220   1      5.0199999999999996      12.550000000000001      18.824999999999999
   221   1      3.7650000000000006                  11.295      21.334999999999997
   222   1      3.7650000000000006      12.550000000000001      22.589999999999996
   223   1      5.0199999999999996                  11.295      22.589999999999996
   224   1      5.0199999999999996      12.550000000000001      21.334999999999997
   225   1      3.7650000000000006                  11.295      23.844999999999999
   226   1      5.0199999999999996      12.550000000000001      23.844999999999999
   227   1      5.0199999999999996      13.804999999999998      2.5100000000000016
   228   1      3.7650000000000006      13.804999999999998      3.7650000000000006
   229   1      3.7650000000000006                   15.06      5.0199999999999996
   230   1      5.0199999999999996      13.804999999999998      5.0199999999999996
   231   1      5.0199999999999996                   15.06      3.7650000000000006
   232   1      3.7650000000000006      13.804999999999998      6.2750000000000004
   233   1      3.7650000000000006                   15.06      7.5300000000000011
   234   1      5.0199999999999996      13.804999999999998      7.5300000000000011
   235   1      5.0199999999999996                   15.06      6.2750000000000004
   236   1      3.7650000000000006      13.804999999999998      8.7850000000000001
   237   1      3.7650000000000006                   15.06      10.039999999999999
   238   1      5.0199999999999996      13.804999999999998      10.039999999999999
   239   1      5.0199999999999996                   15.06      8.7850000000000001
   240   1      3.7650000000000006      13.804999999999998                  11.295
   241   1      3.7650000000000006                   15.06      12.550000000000001
   242   1      5.0199999999999996      13.804999999999998      12.550000000000001
   243   1      5.0199999999999996                   15.06                  11.295
   244   1      3.7650000000000006      13.804999999999998      13.804999999999998
   245   1      3.7650000000000006                   15.06                   15.06
   246   1      5.0199999999999996      13.804999999999998                   15.06
   247   1      5.0199999999999996                   15.06      13.804999999999998
   248   1      3.7650000000000006      13.804999999999998      16.315000000000001
   249   1      3.7650000000000006                   15.06                   17.57
   250   1      5.0199999999999996      13.804999999999998                   17.57
   251   1      5.0199999999999996                   15.06      16.315000000000001
   252   1      3.7650000000000006      13.804999999999998      18.824999999999999
   253   1      3.7650000000000006                   15.06      20.079999999999998
   254   1      5.0199999999999996      13.804999999999998      20.079999999999998
   255   1      5.0199999999999996                   15.06      18.824999999999999
   256   1      3.7650000000000006      13.804999999999998      21.334999999999997
   257   1      3.7650000000000006                   15.06      22.589999999999996
   258   1      5.0199999999999996      13.804999999999998      22.589999999999996
   259   1      5.0199999999999996                   15.06      21.334999999999997
   260   1      3.7650000000000006      13.804999999999998      23.844999999999999
   261   1      5.0199999999999996      13.804999999999998      25.099999999999998
   262   1      5.0199999999999996                   15.06      23.844999999999999
   263   1      3.7650000000000006      16.315000000000001      3.7650000000000006
   264   1      3.7650000000000006                   17.57      5.0199999999999996
   265   1      5.0199999999999996      16.315000000000001      5.0199999999999996
   266   1      5.0199999999999996                   17.57      3.7650000000000006
   267   1      3.7650000000000006      16.315000000000001      6.2750000000000004
   268   1      3.7650000000000006                   17.57      7.5300000000000011
   269   1      5.0199999999999996      16.315000000000001      7.5300000000000011
   270   1      5.0199999999999996                   17.57      6.2750000000000004
   271   1      3.7650000000000006      16.315000000000001      8.7850000000000001
   272   1      3.7650000000000006                   17.57      10.039999999999999
   273   1      5.0199999999999996      16.315000000000001      10.039999999999999
   274   1      5.0199999999999996                   17.57      8.7850000000000001
   275   1      3.7650000000000006      16.315000000000001                  11.295
   276   1      3.7650000000000006                   17.57      12.550000000000001
   277   1      5.0199999999999996      16.315000000000001      12.550000000000001
   278   1      5.0199999999999996                   17.57                  11.295
   279   1      3.7650000000000006      16.315000000000001      13.804999999999998
   280   1      3.7650000000000006                   17.57                   15.06
   281   1      5.0199999999999996      16.315000000000001                   15.06
   282   1      5.0199999999999996                   17.57      13.804999999999998
   283   1      3.7650000000000006      16.315000000000001      16.315000000000001
   284   1      3.7650000000000006                   17.57                   17.57
   285   1      5.0199999999999996      16.315000000000001                   17.57
   286   1      5.0199999999999996                   17.57      16.315000000000001
   287   1      3.7650000000000006      16.315000000000001      18.824999999999999
   288   1      3.7650000000000006                   17.57      20.079999999999998
   289   1      5.0199999999999996      16.315000000000001      20.079999999999998
   290   1      5.0199999999999996                   17.57      18.824999999999999
   291   1      3.7650000000000006      16.315000000000001      21.334999999999997
   292   1      3.7650000000000006                   17.57      22.589999999999996
   293   1      5.0199999999999996      16.315000000000001      22.589999999999996
   294   1      5.0199999999999996                   17.57      21.334999999999997
   295   1      3.7650000000000006      16.315000000000001      23.844999999999999
   296   1      5.0199999999999996                   17.57      23.844999999999999
   297   1      3.7650000000000006      20.079999999999998      5.0199999999999996
   298   1      5.0199999999999996      18.824999999999999      5.0199999999999996
   299   1      5.0199999999999996      20.079999999999998      3.7650000000000006
   300   1      3.7650000000000006      18.824999999999999      6.2750000000000004
   301   1      3.7650000000000006      20.079999999999998      7.5300000000000011
   302   1      5.0199999999999996      18.824999999999999      7.5300000000000011
   303   1      5.0199999999999996      20.079999999999998      6.2750000000000004
   304   1      3.7650000000000006      18.824999999999999      8.7850000000000001
   305   1      3.7650000000000006      20.079999999999998      10.039999999999999
   306   1      5.0199999999999996      18.824999999999999      10.039999999999999
   307   1      5.0199999999999996      20.079999999999998      8.7850000000000001
   308   1      3.7650000000000006      18.824999999999999                  11.295
   309   1      3.7650000000000006      20.079999999999998      12.550000000000001
   310   1      5.0199999999999996      18.824999999999999      12.550000000000001
   311   1      5.0199999999999996      20.079999999999998                  11.295
   312   1      3.7650000000000006      18.824999999999999      13.804999999999998
   313   1      3.7650000000000006      20.079999999999998                   15.06
   314   1      5.0199999999999996      18.824999999999999                   15.06
   315   1      5.0199999999999996      20.079999999999998      13.804999999999998
   316   1      3.7650000000000006      18.824999999999999      16.315000000000001
   317   1      3.7650000000000006      20.079999999999998                   17.57
   318   1      5.0199999999999996      18.824999999999999                   17.57
   319   1      5.0199999999999996      20.079999999999998      16.315000000000001
   320   1      3.7650000000000006      18.824999999999999      18.824999999999999
   321   1      3.7650000000000006      20.079999999999998      20.079999999999998
   322   1      5.0199999999999996      18.824999999999999      20.079999999999998
   323   1      5.0199999999999996      20.079999999999998      18.824999999999999
   324   1      3.7650000000000006      18.824999999999999      21.334999999999997
   325   1      3.7650000000000006      20.079999999999998      22.589999999999996
   326   1      5.0199999999999996      18.824999999999999      22.589999999999996
   327   1      5.0199999999999996      20.079999999999998      21.334999999999997
   328   1      5.0199999999999996      20.079999999999998      23.844999999999999
   329   1      5.0199999999999996      21.334999999999997      5.0199999999999996
   330   1      3.7650000000000006      21.334999999999997      6.2750000000000004
   331   1      3.7650000000000006      22.589999999999996      7.5300000000000011
   332   1      5.0199999999999996      21.334999999999997      7.5300000000000011
   333   1      5.0199999999999996      22.589999999999996      6.2750000000000004
   334   1      3.7650000000000006      21.334999999999997      8.7850000000000001
   335   1      3.7650000000000006      22.589999999999996      10.039999999999999
   336   1      5.0199999999999996      21.334999999999997      10.039999999999999
   337   1      5.0199999999999996      22.589999999999996      8.7850000000000001
   338   1      3.7650000000000006      21.334999999999997                  11.295
   339   1      3.7650000000000006      22.589999999999996      12.550000000000001
   340   1      5.0199999999999996      21.334999999999997      12.550000000000001
   341   1      5.0199999999999996      22.589999999999996                  11.295
   342   1      3.7650000000000006      21.334999999999997      13.804999999999998
   343   1      3.7650000000000006      22.589999999999996                   15.06
   344   1      5.0199999999999996      21.334999999999997                   15.06
   345   1      5.0199999999999996      22.589999999999996      13.804999999999998
   346   1      3.7650000000000006      21.334999999999997      16.315000000000001
   347   1      3.7650000000000006      22.589999999999996                   17.57
   348   1      5.0199999999999996      21.334999999999997                   17.57
   349   1      5.0199999999999996      22.589999999999996      16.315000000000001
   350   1      3.7650000000000006      21.334999999999997      18.824999999999999
   351   1      3.7650000000000006      22.589999999999996      20.079999999999998
   352   1      5.0199999999999996      21.334999999999997      20.079999999999998
   353   1      5.0199999999999996      22.589999999999996      18.824999999999999
   354   1      3.7650000000000006      21.334999999999997      21.334999999999997
   355   1      5.0199999999999996      21.334999999999997      22.589999999999996
   356   1      5.0199999999999996      22.589999999999996      21.334999999999997
   357   1      5.0199999999999996      23.844999999999999      7.5300000000000011
   358   1      5.0199999999999996      23.844999999999999      10.039999999999999