LAMMPS data file via write_data, version 30 Nov 2020, timestep = 0

30069 atoms
5 atom types

0 101 xlo xhi
0 101 ylo yhi
0 101 zlo zhi

Masses

1 58.7
2 55.8
3 52
4 59
5 63

Atoms # atomic

1 1 1.7850000000000037 48.195 49.980000000000004 0 0 0
2 5 1.7850000000000037 49.980000000000004 48.195 0 0 0
3 1 7.105427357601002e-15 49.980000000000004 49.980000000000004 0 0 0
6 2 5.355000000000004 41.055 49.980000000000004 0 0 0
7 4 3.5700000000000074 44.625 48.195 0 0 0
8 5 5.355000000000004 42.84 48.195 0 0 0
9 1 5.355000000000004 44.625 46.410000000000004 0 0 0
10 4 3.5700000000000074 42.84 49.980000000000004 0 0 0
13 3 5.355000000000004 44.625 49.980000000000004 0 0 0
15 5 3.5700000000000074 48.195 44.625 0 0 0
16 3 5.355000000000004 46.410000000000004 44.625 0 0 0
17 4 5.355000000000004 48.195 42.84 0 0 0
18 3 3.5700000000000074 46.410000000000004 46.410000000000004 0 0 0
19 2 3.5700000000000074 48.195 48.195 0 0 0
20 1 5.355000000000004 46.410000000000004 48.195 0 0 0
21 2 5.355000000000004 48.195 46.410000000000004 0 0 0
22 4 3.5700000000000074 46.410000000000004 49.980000000000004 0 0 0
25 3 5.355000000000004 48.195 49.980000000000004 0 0 0
31 2 5.355000000000004 49.980000000000004 41.055 0 0 0
32 3 3.5700000000000074 49.980000000000004 42.84 0 0 0
34 3 5.355000000000004 49.980000000000004 44.625 0 0 0
36 5 3.5700000000000074 49.980000000000004 46.410000000000004 0 0 0
38 3 5.355000000000004 49.980000000000004 48.195 0 0 0
40 4 3.5700000000000074 49.980000000000004 49.980000000000004 0 0 0
67 3 8.925000000000004 33.915 49.980000000000004 0 0 0
68 2 7.140000000000008 37.485 48.195 0 0 0
69 2 8.925000000000004 35.7 48.195 0 0 0
70 3 8.925000000000004 37.485 46.410000000000004 0 0 0
71 3 7.140000000000008 35.7 49.980000000000004 0 0 0
74 2 8.925000000000004 37.485 49.980000000000004 0 0 0
76 1 7.140000000000008 41.055 44.625 0 0 0
77 4 8.925000000000004 39.27 44.625 0 0 0
78 2 8.925000000000004 41.055 42.84 0 0 0
79 1 7.140000000000008 39.27 46.410000000000004 0 0 0
80 2 7.140000000000008 41.055 48.195 0 0 0
81 1 8.925000000000004 39.27 48.195 0 0 0
82 4 8.925000000000004 41.055 46.410000000000004 0 0 0
83 1 7.140000000000008 39.27 49.980000000000004 0 0 0
86 2 8.925000000000004 41.055 49.980000000000004 0 0 0
92 1 7.140000000000008 44.625 41.055 0 0 0
93 2 8.925000000000004 42.84 41.055 0 0 0
94 2 8.925000000000004 44.625 39.27 0 0 0
95 2 7.140000000000008 42.84 42.84 0 0 0
96 3 7.140000000000008 44.625 44.625 0 0 0
97 1 8.925000000000004 42.84 44.625 0 0 0
98 3 8.925000000000004 44.625 42.84 0 0 0
99 1 7.140000000000008 42.84 46.410000000000004 0 0 0
100 3 7.140000000000008 44.625 48.195 0 0 0
101 2 8.925000000000004 42.84 48.195 0 0 0
102 2 8.925000000000004 44.625 46.410000000000004 0 0 0
103 3 7.140000000000008 42.84 49.980000000000004 0 0 0
106 1 8.925000000000004 44.625 49.980000000000004 0 0 0
116 2 7.140000000000008 48.195 37.485 0 0 0
117 4 8.925000000000004 46.410000000000004 37.485 0 0 0
118 2 8.925000000000004 48.195 35.7 0 0 0
119 1 7.140000000000008 46.410000000000004 39.27 0 0 0
120 3 7.140000000000008 48.195 41.055 0 0 0
121 2 8.925000000000004 46.410000000000004 41.055 0 0 0
122 1 8.925000000000004 48.195 39.27 0 0 0
123 1 7.140000000000008 46.410000000000004 42.84 0 0 0
124 2 7.140000000000008 48.195 44.625 0 0 0
125 1 8.925000000000004 46.410000000000004 44.625 0 0 0
126 5 8.925000000000004 48.195 42.84 0 0 0
127 5 7.140000000000008 46.410000000000004 46.410000000000004 0 0 0
128 4 7.140000000000008 48.195 48.195 0 0 0
129 2 8.925000000000004 46.410000000000004 48.195 0 0 0
130 2 8.925000000000004 48.195 46.410000000000004 0 0 0
131 5 7.140000000000008 46.410000000000004 49.980000000000004 0 0 0
134 5 8.925000000000004 48.195 49.980000000000004 0 0 0
148 5 8.925000000000004 49.980000000000004 33.915 0 0 0
149 5 7.140000000000008 49.980000000000004 35.7 0 0 0
151 4 8.925000000000004 49.980000000000004 37.485 0 0 0
153 3 7.140000000000008 49.980000000000004 39.27 0 0 0
155 4 8.925000000000004 49.980000000000004 41.055 0 0 0
157 3 7.140000000000008 49.980000000000004 42.84 0 0 0
159 4 8.925000000000004 49.980000000000004 44.625 0 0 0
161 1 7.140000000000008 49.980000000000004 46.410000000000004 0 0 0
163 1 8.925000000000004 49.980000000000004 48.195 0 0 0
165 3 7.140000000000008 49.980000000000004 49.980000000000004 0 0 0
248 2 12.495000000000005 26.775000000000006 49.980000000000004 0 0 0
249 2 10.710000000000008 30.345 48.195 0 0 0
250 4 12.495000000000005 28.560000000000002 48.195 0 0 0
251 4 12.495000000000005 30.345 46.410000000000004 0 0 0
252 3 10.710000000000008 28.560000000000002 49.980000000000004 0 0 0
255 2 12.495000000000005 30.345 49.980000000000004 0 0 0
257 3 10.710000000000008 33.915 44.625 0 0 0
258 4 12.495000000000005 32.13 44.625 0 0 0
259 1 12.495000000000005 33.915 42.84 0 0 0
260 5 10.710000000000008 32.13 46.410000000000004 0 0 0
261 5 10.710000000000008 33.915 48.195 0 0 0
262 2 12.495000000000005 32.13 48.195 0 0 0
263 2 12.495000000000005 33.915 46.410000000000004 0 0 0
264 2 10.710000000000008 32.13 49.980000000000004 0 0 0
267 1 12.495000000000005 33.915 49.980000000000004 0 0 0
273 1 10.710000000000008 37.485 41.055 0 0 0
274 2 12.495000000000005 35.7 41.055 0 0 0
275 5 12.495000000000005 37.485 39.27 0 0 0
276 3 10.710000000000008 35.7 42.84 0 0 0
277 1 10.710000000000008 37.485 44.625 0 0 0
278 5 12.495000000000005 35.7 44.625 0 0 0
279 1 12.495000000000005 37.485 42.84 0 0 0
280 2 10.710000000000008 35.7 46.410000000000004 0 0 0
281 2 10.710000000000008 37.485 48.195 0 0 0
282 3 12.495000000000005 35.7 48.195 0 0 0
283 5 12.495000000000005 37.485 46.410000000000004 0 0 0
284 3 10.710000000000008 35.7 49.980000000000004 0 0 0
287 3 12.495000000000005 37.485 49.980000000000004 0 0 0
297 5 10.710000000000008 41.055 37.485 0 0 0
298 1 12.495000000000005 39.27 37.485 0 0 0
299 2 12.495000000000005 41.055 35.7 0 0 0
300 2 10.710000000000008 39.27 39.27 0 0 0
301 2 10.710000000000008 41.055 41.055 0 0 0
302 5 12.495000000000005 39.27 41.055 0 0 0
303 5 12.495000000000005 41.055 39.27 0 0 0
304 2 10.710000000000008 39.27 42.84 0 0 0
305 3 10.710000000000008 41.055 44.625 0 0 0
306 3 12.495000000000005 39.27 44.625 0 0 0
307 2 12.495000000000005 41.055 42.84 0 0 0
308 5 10.710000000000008 39.27 46.410000000000004 0 0 0
309 3 10.710000000000008 41.055 48.195 0 0 0
310 3 12.495000000000005 39.27 48.195 0 0 0
311 5 12.495000000000005 41.055 46.410000000000004 0 0 0
312 3 10.710000000000008 39.27 49.980000000000004 0 0 0
315 5 12.495000000000005 41.055 49.980000000000004 0 0 0
329 4 10.710000000000008 44.625 33.915 0 0 0
330 5 12.495000000000005 42.84 33.915 0 0 0
331 3 12.495000000000005 44.625 32.13 0 0 0
332 4 10.710000000000008 42.84 35.7 0 0 0
333 1 10.710000000000008 44.625 37.485 0 0 0
334 1 12.495000000000005 42.84 37.485 0 0 0
335 2 12.495000000000005 44.625 35.7 0 0 0
336 5 10.710000000000008 42.84 39.27 0 0 0
337 5 10.710000000000008 44.625 41.055 0 0 0
338 5 12.495000000000005 42.84 41.055 0 0 0
339 4 12.495000000000005 44.625 39.27 0 0 0
340 1 10.710000000000008 42.84 42.84 0 0 0
341 4 10.710000000000008 44.625 44.625 0 0 0
342 2 12.495000000000005 42.84 44.625 0 0 0
343 1 12.495000000000005 44.625 42.84 0 0 0
344 5 10.710000000000008 42.84 46.410000000000004 0 0 0
345 2 10.710000000000008 44.625 48.195 0 0 0
346 5 12.495000000000005 42.84 48.195 0 0 0
347 3 12.495000000000005 44.625 46.410000000000004 0 0 0
348 3 10.710000000000008 42.84 49.980000000000004 0 0 0
351 2 12.495000000000005 44.625 49.980000000000004 0 0 0
369 1 10.710000000000008 48.195 30.345 0 0 0
370 3 12.495000000000005 46.410000000000004 30.345 0 0 0
371 5 12.495000000000005 48.195 28.560000000000002 0 0 0
372 2 10.710000000000008 46.410000000000004 32.13 0 0 0
373 4 10.710000000000008 48.195 33.915 0 0 0
374 5 12.495000000000005 46.410000000000004 33.915 0 0 0
375 1 12.495000000000005 48.195 32.13 0 0 0
376 3 10.710000000000008 46.410000000000004 35.7 0 0 0
377 5 10.710000000000008 48.195 37.485 0 0 0
378 5 12.495000000000005 46.410000000000004 37.485 0 0 0
379 3 12.495000000000005 48.195 35.7 0 0 0
380 1 10.710000000000008 46.410000000000004 39.27 0 0 0
381 1 10.710000000000008 48.195 41.055 0 0 0
382 3 12.495000000000005 46.410000000000004 41.055 0 0 0
383 5 12.495000000000005 48.195 39.27 0 0 0
384 3 10.710000000000008 46.410000000000004 42.84 0 0 0
385 2 10.710000000000008 48.195 44.625 0 0 0
386 3 12.495000000000005 46.410000000000004 44.625 0 0 0
387 2 12.495000000000005 48.195 42.84 0 0 0
388 3 10.710000000000008 46.410000000000004 46.410000000000004 0 0 0
389 5 10.710000000000008 48.195 48.195 0 0 0
390 3 12.495000000000005 46.410000000000004 48.195 0 0 0
391 4 12.495000000000005 48.195 46.410000000000004 0 0 0
392 5 10.710000000000008 46.410000000000004 49.980000000000004 0 0 0
395 3 12.495000000000005 48.195 49.980000000000004 0 0 0
417 4 12.495000000000005 49.980000000000004 26.775000000000006 0 0 0
418 3 10.710000000000008 49.980000000000004 28.560000000000002 0 0 0
420 1 12.495000000000005 49.980000000000004 30.345 0 0 0
422 1 10.710000000000008 49.980000000000004 32.13 0 0 0
424 5 12.495000000000005 49.980000000000004 33.915 0 0 0
426 4 10.710000000000008 49.980000000000004 35.7 0 0 0
428 5 12.495000000000005 49.980000000000004 37.485 0 0 0
430 1 10.710000000000008 49.980000000000004 39.27 0 0 0
432 5 12.495000000000005 49.980000000000004 41.055 0 0 0
434 1 10.710000000000008 49.980000000000004 42.84 0 0 0
436 3 12.495000000000005 49.980000000000004 44.625 0 0 0
438 4 10.710000000000008 49.980000000000004 46.410000000000004 0 0 0
440 4 12.495000000000005 49.980000000000004 48.195 0 0 0
442 3 10.710000000000008 49.980000000000004 49.980000000000004 0 0 0
613 2 16.065000000000005 19.635000000000005 49.980000000000004 0 0 0
614 1 14.280000000000001 23.205000000000005 48.195 0 0 0
615 3 16.065000000000005 21.420000000000005 48.195 0 0 0
616 1 16.065000000000005 23.205000000000005 46.410000000000004 0 0 0
617 5 14.280000000000001 21.420000000000005 49.980000000000004 0 0 0
620 1 16.065000000000005 23.205000000000005 49.980000000000004 0 0 0
622 4 14.280000000000001 26.775000000000006 44.625 0 0 0
623 2 16.065000000000005 24.990000000000006 44.625 0 0 0
624 2 16.065000000000005 26.775000000000006 42.84 0 0 0
625 2 14.280000000000001 24.990000000000006 46.410000000000004 0 0 0
626 4 14.280000000000001 26.775000000000006 48.195 0 0 0
627 3 16.065000000000005 24.990000000000006 48.195 0 0 0
628 4 16.065000000000005 26.775000000000006 46.410000000000004 0 0 0
629 5 14.280000000000001 24.990000000000006 49.980000000000004 0 0 0
632 5 16.065000000000005 26.775000000000006 49.980000000000004 0 0 0
638 5 14.280000000000001 30.345 41.055 0 0 0
639 4 16.065000000000005 28.560000000000002 41.055 0 0 0
640 4 16.065000000000005 30.345 39.27 0 0 0
641 2 14.280000000000001 28.560000000000002 42.84 0 0 0
642 3 14.280000000000001 30.345 44.625 0 0 0
643 3 16.065000000000005 28.560000000000002 44.625 0 0 0
644 2 16.065000000000005 30.345 42.84 0 0 0
645 3 14.280000000000001 28.560000000000002 46.410000000000004 0 0 0
646 1 14.280000000000001 30.345 48.195 0 0 0
647 5 16.065000000000005 28.560000000000002 48.195 0 0 0
648 3 16.065000000000005 30.345 46.410000000000004 0 0 0
649 1 14.280000000000001 28.560000000000002 49.980000000000004 0 0 0
652 2 16.065000000000005 30.345 49.980000000000004 0 0 0
662 4 14.280000000000001 33.915 37.485 0 0 0
663 1 16.065000000000005 32.13 37.485 0 0 0
664 3 16.065000000000005 33.915 35.7 0 0 0
665 2 14.280000000000001 32.13 39.27 0 0 0
666 5 14.280000000000001 33.915 41.055 0 0 0
667 1 16.065000000000005 32.13 41.055 0 0 0
668 1 16.065000000000005 33.915 39.27 0 0 0
669 4 14.280000000000001 32.13 42.84 0 0 0
670 5 14.280000000000001 33.915 44.625 0 0 0
671 5 16.065000000000005 32.13 44.625 0 0 0
672 1 16.065000000000005 33.915 42.84 0 0 0
673 5 14.280000000000001 32.13 46.410000000000004 0 0 0
674 5 14.280000000000001 33.915 48.195 0 0 0
675 4 16.065000000000005 32.13 48.195 0 0 0
676 5 16.065000000000005 33.915 46.410000000000004 0 0 0
677 3 14.280000000000001 32.13 49.980000000000004 0 0 0
680 1 16.065000000000005 33.915 49.980000000000004 0 0 0
694 4 14.280000000000001 37.485 33.915 0 0 0
695 2 16.065000000000005 35.7 33.915 0 0 0
696 2 16.065000000000005 37.485 32.13 0 0 0
697 1 14.280000000000001 35.7 35.7 0 0 0
698 4 14.280000000000001 37.485 37.485 0 0 0
699 1 16.065000000000005 35.7 37.485 0 0 0
700 4 16.065000000000005 37.485 35.7 0 0 0
701 2 14.280000000000001 35.7 39.27 0 0 0
702 2 14.280000000000001 37.485 41.055 0 0 0
703 5 16.065000000000005 35.7 41.055 0 0 0
704 1 16.065000000000005 37.485 39.27 0 0 0
705 2 14.280000000000001 35.7 42.84 0 0 0
706 1 14.280000000000001 37.485 44.625 0 0 0
707 5 16.065000000000005 35.7 44.625 0 0 0
708 1 16.065000000000005 37.485 42.84 0 0 0
709 3 14.280000000000001 35.7 46.410000000000004 0 0 0
710 4 14.280000000000001 37.485 48.195 0 0 0
711 1 16.065000000000005 35.7 48.195 0 0 0
712 4 16.065000000000005 37.485 46.410000000000004 0 0 0
713 1 14.280000000000001 35.7 49.980000000000004 0 0 0
716 5 16.065000000000005 37.485 49.980000000000004 0 0 0
734 4 14.280000000000001 41.055 30.345 0 0 0
735 5 16.065000000000005 39.27 30.345 0 0 0
736 4 16.065000000000005 41.055 28.560000000000002 0 0 0
737 4 14.280000000000001 39.27 32.13 0 0 0
738 3 14.280000000000001 41.055 33.915 0 0 0
739 5 16.065000000000005 39.27 33.915 0 0 0
740 2 16.065000000000005 41.055 32.13 0 0 0
741 3 14.280000000000001 39.27 35.7 0 0 0
742 2 14.280000000000001 41.055 37.485 0 0 0
743 5 16.065000000000005 39.27 37.485 0 0 0
744 2 16.065000000000005 41.055 35.7 0 0 0
745 4 14.280000000000001 39.27 39.27 0 0 0
746 2 14.280000000000001 41.055 41.055 0 0 0
747 1 16.065000000000005 39.27 41.055 0 0 0
748 3 16.065000000000005 41.055 39.27 0 0 0
749 1 14.280000000000001 39.27 42.84 0 0 0
750 3 14.280000000000001 41.055 44.625 0 0 0
751 4 16.065000000000005 39.27 44.625 0 0 0
752 3 16.065000000000005 41.055 42.84 0 0 0
753 1 14.280000000000001 39.27 46.410000000000004 0 0 0
754 1 14.280000000000001 41.055 48.195 0 0 0
755 4 16.065000000000005 39.27 48.195 0 0 0
756 4 16.065000000000005 41.055 46.410000000000004 0 0 0
757 1 14.280000000000001 39.27 49.980000000000004 0 0 0
760 4 16.065000000000005 41.055 49.980000000000004 0 0 0
782 2 14.280000000000001 44.625 26.775000000000006 0 0 0
783 4 16.065000000000005 42.84 26.775000000000006 0 0 0
784 2 16.065000000000005 44.625 24.990000000000006 0 0 0
785 4 14.280000000000001 42.84 28.560000000000002 0 0 0
786 4 14.280000000000001 44.625 30.345 0 0 0
787 1 16.065000000000005 42.84 30.345 0 0 0
788 1 16.065000000000005 44.625 28.560000000000002 0 0 0
789 3 14.280000000000001 42.84 32.13 0 0 0
790 3 14.280000000000001 44.625 33.915 0 0 0
791 4 16.065000000000005 42.84 33.915 0 0 0
792 1 16.065000000000005 44.625 32.13 0 0 0
793 4 14.280000000000001 42.84 35.7 0 0 0
794 2 14.280000000000001 44.625 37.485 0 0 0
795 1 16.065000000000005 42.84 37.485 0 0 0
796 3 16.065000000000005 44.625 35.7 0 0 0
797 5 14.280000000000001 42.84 39.27 0 0 0
798 2 14.280000000000001 44.625 41.055 0 0 0
799 1 16.065000000000005 42.84 41.055 0 0 0
800 1 16.065000000000005 44.625 39.27 0 0 0
801 2 14.280000000000001 42.84 42.84 0 0 0
802 4 14.280000000000001 44.625 44.625 0 0 0
803 4 16.065000000000005 42.84 44.625 0 0 0
804 2 16.065000000000005 44.625 42.84 0 0 0
805 3 14.280000000000001 42.84 46.410000000000004 0 0 0
806 2 14.280000000000001 44.625 48.195 0 0 0
807 5 16.065000000000005 42.84 48.195 0 0 0
808 5 16.065000000000005 44.625 46.410000000000004 0 0 0
809 3 14.280000000000001 42.84 49.980000000000004 0 0 0
812 5 16.065000000000005 44.625 49.980000000000004 0 0 0
838 4 14.280000000000001 48.195 23.205000000000005 0 0 0
839 2 16.065000000000005 46.410000000000004 23.205000000000005 0 0 0
840 5 16.065000000000005 48.195 21.420000000000005 0 0 0
841 5 14.280000000000001 46.410000000000004 24.990000000000006 0 0 0
842 1 14.280000000000001 48.195 26.775000000000006 0 0 0
843 4 16.065000000000005 46.410000000000004 26.775000000000006 0 0 0
844 5 16.065000000000005 48.195 24.990000000000006 0 0 0
845 5 14.280000000000001 46.410000000000004 28.560000000000002 0 0 0
846 1 14.280000000000001 48.195 30.345 0 0 0
847 2 16.065000000000005 46.410000000000004 30.345 0 0 0
848 5 16.065000000000005 48.195 28.560000000000002 0 0 0
849 3 14.280000000000001 46.410000000000004 32.13 0 0 0
850 2 14.280000000000001 48.195 33.915 0 0 0
851 2 16.065000000000005 46.410000000000004 33.915 0 0 0
852 3 16.065000000000005 48.195 32.13 0 0 0
853 3 14.280000000000001 46.410000000000004 35.7 0 0 0
854 2 14.280000000000001 48.195 37.485 0 0 0
855 2 16.065000000000005 46.410000000000004 37.485 0 0 0
856 4 16.065000000000005 48.195 35.7 0 0 0
857 3 14.280000000000001 46.410000000000004 39.27 0 0 0
858 3 14.280000000000001 48.195 41.055 0 0 0
859 4 16.065000000000005 46.410000000000004 41.055 0 0 0
860 2 16.065000000000005 48.195 39.27 0 0 0
861 5 14.280000000000001 46.410000000000004 42.84 0 0 0
862 2 14.280000000000001 48.195 44.625 0 0 0
863 2 16.065000000000005 46.410000000000004 44.625 0 0 0
864 1 16.065000000000005 48.195 42.84 0 0 0
865 4 14.280000000000001 46.410000000000004 46.410000000000004 0 0 0
866 4 14.280000000000001 48.195 48.195 0 0 0
867 2 16.065000000000005 46.410000000000004 48.195 0 0 0
868 3 16.065000000000005 48.195 46.410000000000004 0 0 0
869 4 14.280000000000001 46.410000000000004 49.980000000000004 0 0 0
872 1 16.065000000000005 48.195 49.980000000000004 0 0 0
902 5 16.065000000000005 49.980000000000004 19.635000000000005 0 0 0
903 1 14.280000000000001 49.980000000000004 21.420000000000005 0 0 0
905 3 16.065000000000005 49.980000000000004 23.205000000000005 0 0 0
907 1 14.280000000000001 49.980000000000004 24.990000000000006 0 0 0
909 4 16.065000000000005 49.980000000000004 26.775000000000006 0 0 0
911 4 14.280000000000001 49.980000000000004 28.560000000000002 0 0 0
913 4 16.065000000000005 49.980000000000004 30.345 0 0 0
915 2 14.280000000000001 49.980000000000004 32.13 0 0 0
917 2 16.065000000000005 49.980000000000004 33.915 0 0 0
919 4 14.280000000000001 49.980000000000004 35.7 0 0 0
921 5 16.065000000000005 49.980000000000004 37.485 0 0 0
923 2 14.280000000000001 49.980000000000004 39.27 0 0 0
925 2 16.065000000000005 49.980000000000004 41.055 0 0 0
927 4 14.280000000000001 49.980000000000004 42.84 0 0 0
929 1 16.065000000000005 49.980000000000004 44.625 0 0 0
931 3 14.280000000000001 49.980000000000004 46.410000000000004 0 0 0
933 2 16.065000000000005 49.980000000000004 48.195 0 0 0
935 4 14.280000000000001 49.980000000000004 49.980000000000004 0 0 0
1226 1 19.635000000000005 16.065000000000005 49.980000000000004 0 0 0
1227 4 17.85000000000001 19.635000000000005 44.625 0 0 0
1228 2 19.635000000000005 17.85000000000001 44.625 0 0 0
1229 5 19.635000000000005 19.635000000000005 42.84 0 0 0
1230 5 17.85000000000001 17.85000000000001 46.410000000000004 0 0 0
1231 5 17.85000000000001 19.635000000000005 48.195 0 0 0
1232 1 19.635000000000005 17.85000000000001 48.195 0 0 0
1233 4 19.635000000000005 19.635000000000005 46.410000000000004 0 0 0
1234 1 17.85000000000001 17.85000000000001 49.980000000000004 0 0 0
1237 2 19.635000000000005 19.635000000000005 49.980000000000004 0 0 0
1243 2 17.85000000000001 23.205000000000005 41.055 0 0 0
1244 3 19.635000000000005 21.420000000000005 41.055 0 0 0
1245 2 19.635000000000005 23.205000000000005 39.27 0 0 0
1246 5 17.85000000000001 21.420000000000005 42.84 0 0 0
1247 1 17.85000000000001 23.205000000000005 44.625 0 0 0
1248 4 19.635000000000005 21.420000000000005 44.625 0 0 0
1249 2 19.635000000000005 23.205000000000005 42.84 0 0 0
1250 4 17.85000000000001 21.420000000000005 46.410000000000004 0 0 0
1251 4 17.85000000000001 23.205000000000005 48.195 0 0 0
1252 5 19.635000000000005 21.420000000000005 48.195 0 0 0
1253 4 19.635000000000005 23.205000000000005 46.410000000000004 0 0 0
1254 5 17.85000000000001 21.420000000000005 49.980000000000004 0 0 0
1257 4 19.635000000000005 23.205000000000005 49.980000000000004 0 0 0
1267 3 17.85000000000001 26.775000000000006 37.485 0 0 0
1268 2 19.635000000000005 24.990000000000006 37.485 0 0 0
1269 4 19.635000000000005 26.775000000000006 35.7 0 0 0
1270 2 17.85000000000001 24.990000000000006 39.27 0 0 0
1271 5 17.85000000000001 26.775000000000006 41.055 0 0 0
1272 4 19.635000000000005 24.990000000000006 41.055 0 0 0
1273 1 19.635000000000005 26.775000000000006 39.27 0 0 0
1274 5 17.85000000000001 24.990000000000006 42.84 0 0 0
1275 1 17.85000000000001 26.775000000000006 44.625 0 0 0
1276 4 19.635000000000005 24.990000000000006 44.625 0 0 0
1277 5 19.635000000000005 26.775000000000006 42.84 0 0 0
1278 2 17.85000000000001 24.990000000000006 46.410000000000004 0 0 0
1279 5 17.85000000000001 26.775000000000006 48.195 0 0 0
1280 2 19.635000000000005 24.990000000000006 48.195 0 0 0
1281 5 19.635000000000005 26.775000000000006 46.410000000000004 0 0 0
1282 1 17.85000000000001 24.990000000000006 49.980000000000004 0 0 0
1285 3 19.635000000000005 26.775000000000006 49.980000000000004 0 0 0
1299 5 17.85000000000001 30.345 33.915 0 0 0
1300 4 19.635000000000005 28.560000000000002 33.915 0 0 0
1301 2 19.635000000000005 30.345 32.13 0 0 0
1302 3 17.85000000000001 28.560000000000002 35.7 0 0 0
1303 5 17.85000000000001 30.345 37.485 0 0 0
1304 2 19.635000000000005 28.560000000000002 37.485 0 0 0
1305 1 19.635000000000005 30.345 35.7 0 0 0
1306 2 17.85000000000001 28.560000000000002 39.27 0 0 0
1307 3 17.85000000000001 30.345 41.055 0 0 0
1308 1 19.635000000000005 28.560000000000002 41.055 0 0 0
1309 3 19.635000000000005 30.345 39.27 0 0 0
1310 4 17.85000000000001 28.560000000000002 42.84 0 0 0
1311 5 17.85000000000001 30.345 44.625 0 0 0
1312 3 19.635000000000005 28.560000000000002 44.625 0 0 0
1313 4 19.635000000000005 30.345 42.84 0 0 0
1314 2 17.85000000000001 28.560000000000002 46.410000000000004 0 0 0
1315 4 17.85000000000001 30.345 48.195 0 0 0
1316 4 19.635000000000005 28.560000000000002 48.195 0 0 0
1317 2 19.635000000000005 30.345 46.410000000000004 0 0 0
1318 3 17.85000000000001 28.560000000000002 49.980000000000004 0 0 0
1321 4 19.635000000000005 30.345 49.980000000000004 0 0 0
1339 5 17.85000000000001 33.915 30.345 0 0 0
1340 1 19.635000000000005 32.13 30.345 0 0 0
1341 3 19.635000000000005 33.915 28.560000000000002 0 0 0
1342 3 17.85000000000001 32.13 32.13 0 0 0
1343 4 17.85000000000001 33.915 33.915 0 0 0
1344 5 19.635000000000005 32.13 33.915 0 0 0
1345 3 19.635000000000005 33.915 32.13 0 0 0
1346 3 17.85000000000001 32.13 35.7 0 0 0
1347 1 17.85000000000001 33.915 37.485 0 0 0
1348 2 19.635000000000005 32.13 37.485 0 0 0
1349 3 19.635000000000005 33.915 35.7 0 0 0
1350 1 17.85000000000001 32.13 39.27 0 0 0
1351 3 17.85000000000001 33.915 41.055 0 0 0
1352 2 19.635000000000005 32.13 41.055 0 0 0
1353 2 19.635000000000005 33.915 39.27 0 0 0
1354 3 17.85000000000001 32.13 42.84 0 0 0
1355 2 17.85000000000001 33.915 44.625 0 0 0
1356 2 19.635000000000005 32.13 44.625 0 0 0
1357 4 19.635000000000005 33.915 42.84 0 0 0
1358 1 17.85000000000001 32.13 46.410000000000004 0 0 0
1359 5 17.85000000000001 33.915 48.195 0 0 0
1360 2 19.635000000000005 32.13 48.195 0 0 0
1361 5 19.635000000000005 33.915 46.410000000000004 0 0 0
1362 2 17.85000000000001 32.13 49.980000000000004 0 0 0
1365 2 19.635000000000005 33.915 49.980000000000004 0 0 0
1387 1 17.85000000000001 37.485 26.775000000000006 0 0 0
1388 4 19.635000000000005 35.7 26.775000000000006 0 0 0
1389 1 19.635000000000005 37.485 24.990000000000006 0 0 0
1390 2 17.85000000000001 35.7 28.560000000000002 0 0 0
1391 3 17.85000000000001 37.485 30.345 0 0 0
1392 1 19.635000000000005 35.7 30.345 0 0 0
1393 3 19.635000000000005 37.485 28.560000000000002 0 0 0
1394 5 17.85000000000001 35.7 32.13 0 0 0
1395 5 17.85000000000001 37.485 33.915 0 0 0
1396 5 19.635000000000005 35.7 33.915 0 0 0
1397 2 19.635000000000005 37.485 32.13 0 0 0
1398 1 17.85000000000001 35.7 35.7 0 0 0
1399 1 17.85000000000001 37.485 37.485 0 0 0
1400 1 19.635000000000005 35.7 37.485 0 0 0
1401 4 19.635000000000005 37.485 35.7 0 0 0
1402 5 17.85000000000001 35.7 39.27 0 0 0
1403 2 17.85000000000001 37.485 41.055 0 0 0
1404 1 19.635000000000005 35.7 41.055 0 0 0
1405 3 19.635000000000005 37.485 39.27 0 0 0
1406 5 17.85000000000001 35.7 42.84 0 0 0
1407 2 17.85000000000001 37.485 44.625 0 0 0
1408 3 19.635000000000005 35.7 44.625 0 0 0
1409 2 19.635000000000005 37.485 42.84 0 0 0
1410 1 17.85000000000001 35.7 46.410000000000004 0 0 0
1411 1 17.85000000000001 37.485 48.195 0 0 0
1412 2 19.635000000000005 35.7 48.195 0 0 0
1413 2 19.635000000000005 37.485 46.410000000000004 0 0 0
1414 5 17.85000000000001 35.7 49.980000000000004 0 0 0
1417 5 19.635000000000005 37.485 49.980000000000004 0 0 0
1443 4 17.85000000000001 41.055 23.205000000000005 0 0 0
1444 1 19.635000000000005 39.27 23.205000000000005 0 0 0
1445 3 19.635000000000005 41.055 21.420000000000005 0 0 0
1446 5 17.85000000000001 39.27 24.990000000000006 0 0 0
1447 1 17.85000000000001 41.055 26.775000000000006 0 0 0
1448 5 19.635000000000005 39.27 26.775000000000006 0 0 0
1449 2 19.635000000000005 41.055 24.990000000000006 0 0 0
1450 4 17.85000000000001 39.27 28.560000000000002 0 0 0
1451 3 17.85000000000001 41.055 30.345 0 0 0
1452 4 19.635000000000005 39.27 30.345 0 0 0
1453 2 19.635000000000005 41.055 28.560000000000002 0 0 0
1454 5 17.85000000000001 39.27 32.13 0 0 0
1455 3 17.85000000000001 41.055 33.915 0 0 0
1456 5 19.635000000000005 39.27 33.915 0 0 0
1457 4 19.635000000000005 41.055 32.13 0 0 0
1458 1 17.85000000000001 39.27 35.7 0 0 0
1459 4 17.85000000000001 41.055 37.485 0 0 0
1460 4 19.635000000000005 39.27 37.485 0 0 0
1461 3 19.635000000000005 41.055 35.7 0 0 0
1462 3 17.85000000000001 39.27 39.27 0 0 0
1463 2 17.85000000000001 41.055 41.055 0 0 0
1464 2 19.635000000000005 39.27 41.055 0 0 0
1465 4 19.635000000000005 41.055 39.27 0 0 0
1466 3 17.85000000000001 39.27 42.84 0 0 0
1467 3 17.85000000000001 41.055 44.625 0 0 0
1468 4 19.635000000000005 39.27 44.625 0 0 0
1469 1 19.635000000000005 41.055 42.84 0 0 0
1470 5 17.85000000000001 39.27 46.410000000000004 0 0 0
1471 1 17.85000000000001 41.055 48.195 0 0 0
1472 2 19.635000000000005 39.27 48.195 0 0 0
1473 1 19.635000000000005 41.055 46.410000000000004 0 0 0
1474 3 17.85000000000001 39.27 49.980000000000004 0 0 0
1477 4 19.635000000000005 41.055 49.980000000000004 0 0 0
1507 5 17.85000000000001 44.625 19.635000000000005 0 0 0
1508 5 19.635000000000005 42.84 19.635000000000005 0 0 0
1509 2 19.635000000000005 44.625 17.85000000000001 0 0 0
1510 3 17.85000000000001 42.84 21.420000000000005 0 0 0
1511 2 17.85000000000001 44.625 23.205000000000005 0 0 0
1512 4 19.635000000000005 42.84 23.205000000000005 0 0 0
1513 5 19.635000000000005 44.625 21.420000000000005 0 0 0
1514 2 17.85000000000001 42.84 24.990000000000006 0 0 0
1515 5 17.85000000000001 44.625 26.775000000000006 0 0 0
1516 5 19.635000000000005 42.84 26.775000000000006 0 0 0
1517 3 19.635000000000005 44.625 24.990000000000006 0 0 0
1518 4 17.85000000000001 42.84 28.560000000000002 0 0 0
1519 2 17.85000000000001 44.625 30.345 0 0 0
1520 2 19.635000000000005 42.84 30.345 0 0 0
1521 5 19.635000000000005 44.625 28.560000000000002 0 0 0
1522 3 17.85000000000001 42.84 32.13 0 0 0
1523 1 17.85000000000001 44.625 33.915 0 0 0
1524 2 19.635000000000005 42.84 33.915 0 0 0
1525 4 19.635000000000005 44.625 32.13 0 0 0
1526 2 17.85000000000001 42.84 35.7 0 0 0
1527 1 17.85000000000001 44.625 37.485 0 0 0
1528 5 19.635000000000005 42.84 37.485 0 0 0
1529 2 19.635000000000005 44.625 35.7 0 0 0
1530 3 17.85000000000001 42.84 39.27 0 0 0
1531 3 17.85000000000001 44.625 41.055 0 0 0
1532 3 19.635000000000005 42.84 41.055 0 0 0
1533 5 19.635000000000005 44.625 39.27 0 0 0
1534 4 17.85000000000001 42.84 42.84 0 0 0
1535 4 17.85000000000001 44.625 44.625 0 0 0
1536 1 19.635000000000005 42.84 44.625 0 0 0
1537 4 19.635000000000005 44.625 42.84 0 0 0
1538 1 17.85000000000001 42.84 46.410000000000004 0 0 0
1539 5 17.85000000000001 44.625 48.195 0 0 0
1540 5 19.635000000000005 42.84 48.195 0 0 0
1541 3 19.635000000000005 44.625 46.410000000000004 0 0 0
1542 1 17.85000000000001 42.84 49.980000000000004 0 0 0
1545 2 19.635000000000005 44.625 49.980000000000004 0 0 0
1579 2 17.85000000000001 46.410000000000004 17.85000000000001 0 0 0
1580 2 17.85000000000001 48.195 19.635000000000005 0 0 0
1581 1 19.635000000000005 46.410000000000004 19.635000000000005 0 0 0
1582 1 19.635000000000005 48.195 17.85000000000001 0 0 0
1583 4 17.85000000000001 46.410000000000004 21.420000000000005 0 0 0
1584 2 17.85000000000001 48.195 23.205000000000005 0 0 0
1585 3 19.635000000000005 46.410000000000004 23.205000000000005 0 0 0
1586 1 19.635000000000005 48.195 21.420000000000005 0 0 0
1587 1 17.85000000000001 46.410000000000004 24.990000000000006 0 0 0
1588 2 17.85000000000001 48.195 26.775000000000006 0 0 0
1589 3 19.635000000000005 46.410000000000004 26.775000000000006 0 0 0
1590 1 19.635000000000005 48.195 24.990000000000006 0 0 0
1591 4 17.85000000000001 46.410000000000004 28.560000000000002 0 0 0
1592 3 17.85000000000001 48.195 30.345 0 0 0
1593 5 19.635000000000005 46.410000000000004 30.345 0 0 0
1594 4 19.635000000000005 48.195 28.560000000000002 0 0 0
1595 3 17.85000000000001 46.410000000000004 32.13 0 0 0
1596 1 17.85000000000001 48.195 33.915 0 0 0
1597 4 19.635000000000005 46.410000000000004 33.915 0 0 0
1598 5 19.635000000000005 48.195 32.13 0 0 0
1599 1 17.85000000000001 46.410000000000004 35.7 0 0 0
1600 2 17.85000000000001 48.195 37.485 0 0 0
1601 1 19.635000000000005 46.410000000000004 37.485 0 0 0
1602 2 19.635000000000005 48.195 35.7 0 0 0
1603 1 17.85000000000001 46.410000000000004 39.27 0 0 0
1604 1 17.85000000000001 48.195 41.055 0 0 0
1605 1 19.635000000000005 46.410000000000004 41.055 0 0 0
1606 4 19.635000000000005 48.195 39.27 0 0 0
1607 3 17.85000000000001 46.410000000000004 42.84 0 0 0
1608 1 17.85000000000001 48.195 44.625 0 0 0
1609 4 19.635000000000005 46.410000000000004 44.625 0 0 0
1610 1 19.635000000000005 48.195 42.84 0 0 0