model_files/Ag/Ag_30000/Ag_554/data.Ag_554_fcc_29683 (written by ASE) 

29683 	 atoms 
1  atom types
0.0                     141  xlo xhi
0.0                     141  ylo yhi
0.0                     141  zlo zhi


Atoms 

     1   1      2.0450000000000017      67.484999999999999      69.530000000000001
     2   1      2.0450000000000017      69.530000000000001      67.484999999999999
     3   1                       0      69.530000000000001      69.530000000000001
     4   1      2.0450000000000017      69.530000000000001      71.575000000000003
     5   1      2.0450000000000017      71.575000000000003      69.530000000000001
     6   1       6.134999999999998      63.394999999999996      69.530000000000001
     7   1      4.0900000000000034      67.484999999999999      67.484999999999999
     8   1       6.134999999999998      65.439999999999998      67.484999999999999
     9   1       6.134999999999998      67.484999999999999      65.439999999999998
    10   1      4.0900000000000034      65.439999999999998      69.530000000000001
    11   1      4.0900000000000034      67.484999999999999      71.575000000000003
    12   1       6.134999999999998      65.439999999999998      71.575000000000003
    13   1       6.134999999999998      67.484999999999999      69.530000000000001
    14   1       6.134999999999998      67.484999999999999       73.61999999999999
    15   1       6.134999999999998      69.530000000000001      63.394999999999996
    16   1      4.0900000000000034      69.530000000000001      65.439999999999998
    17   1      4.0900000000000034      71.575000000000003      67.484999999999999
    18   1       6.134999999999998      69.530000000000001      67.484999999999999
    19   1       6.134999999999998      71.575000000000003      65.439999999999998
    20   1      4.0900000000000034      69.530000000000001      69.530000000000001
    21   1      4.0900000000000034      71.575000000000003      71.575000000000003
    22   1       6.134999999999998      69.530000000000001      71.575000000000003
    23   1       6.134999999999998      71.575000000000003      69.530000000000001
    24   1      4.0900000000000034      69.530000000000001       73.61999999999999
    25   1       6.134999999999998      69.530000000000001      75.664999999999992
    26   1       6.134999999999998      71.575000000000003       73.61999999999999
    27   1       6.134999999999998       73.61999999999999      67.484999999999999
    28   1      4.0900000000000034       73.61999999999999      69.530000000000001
    29   1       6.134999999999998       73.61999999999999      71.575000000000003
    30   1       6.134999999999998      75.664999999999992      69.530000000000001
    31   1      10.224999999999993      59.304999999999993      69.530000000000001
    32   1      8.1799999999999926      63.394999999999996      67.484999999999999
    33   1      10.224999999999993      61.349999999999987      67.484999999999999
    34   1      10.224999999999993      63.394999999999996      65.439999999999998
    35   1      8.1799999999999926      61.349999999999987      69.530000000000001
    36   1      8.1799999999999926      63.394999999999996      71.575000000000003
    37   1      10.224999999999993      61.349999999999987      71.575000000000003
    38   1      10.224999999999993      63.394999999999996      69.530000000000001
    39   1      10.224999999999993      63.394999999999996       73.61999999999999
    40   1      8.1799999999999926      67.484999999999999      63.394999999999996
    41   1      10.224999999999993      65.439999999999998      63.394999999999996
    42   1      10.224999999999993      67.484999999999999      61.349999999999987
    43   1      8.1799999999999926      65.439999999999998      65.439999999999998
    44   1      8.1799999999999926      67.484999999999999      67.484999999999999
    45   1      10.224999999999993      65.439999999999998      67.484999999999999
    46   1      10.224999999999993      67.484999999999999      65.439999999999998
    47   1      8.1799999999999926      65.439999999999998      69.530000000000001
    48   1      8.1799999999999926      67.484999999999999      71.575000000000003
    49   1      10.224999999999993      65.439999999999998      71.575000000000003
    50   1      10.224999999999993      67.484999999999999      69.530000000000001
    51   1      8.1799999999999926      65.439999999999998       73.61999999999999
    52   1      8.1799999999999926      67.484999999999999      75.664999999999992
    53   1      10.224999999999993      65.439999999999998      75.664999999999992
    54   1      10.224999999999993      67.484999999999999       73.61999999999999
    55   1      10.224999999999993      67.484999999999999      77.709999999999994
    56   1      10.224999999999993      69.530000000000001      59.304999999999993
    57   1      8.1799999999999926      69.530000000000001      61.349999999999987
    58   1      8.1799999999999926      71.575000000000003      63.394999999999996
    59   1      10.224999999999993      69.530000000000001      63.394999999999996
    60   1      10.224999999999993      71.575000000000003      61.349999999999987
    61   1      8.1799999999999926      69.530000000000001      65.439999999999998
    62   1      8.1799999999999926      71.575000000000003      67.484999999999999
    63   1      10.224999999999993      69.530000000000001      67.484999999999999
    64   1      10.224999999999993      71.575000000000003      65.439999999999998
    65   1      8.1799999999999926      69.530000000000001      69.530000000000001
    66   1      8.1799999999999926      71.575000000000003      71.575000000000003
    67   1      10.224999999999993      69.530000000000001      71.575000000000003
    68   1      10.224999999999993      71.575000000000003      69.530000000000001
    69   1      8.1799999999999926      69.530000000000001       73.61999999999999
    70   1      8.1799999999999926      71.575000000000003      75.664999999999992
    71   1      10.224999999999993      69.530000000000001      75.664999999999992
    72   1      10.224999999999993      71.575000000000003       73.61999999999999
    73   1      8.1799999999999926      69.530000000000001      77.709999999999994
    74   1      10.224999999999993      69.530000000000001      79.754999999999995
    75   1      10.224999999999993      71.575000000000003      77.709999999999994
    76   1      10.224999999999993       73.61999999999999      63.394999999999996
    77   1      8.1799999999999926       73.61999999999999      65.439999999999998
    78   1      8.1799999999999926      75.664999999999992      67.484999999999999
    79   1      10.224999999999993       73.61999999999999      67.484999999999999
    80   1      10.224999999999993      75.664999999999992      65.439999999999998
    81   1      8.1799999999999926       73.61999999999999      69.530000000000001
    82   1      8.1799999999999926      75.664999999999992      71.575000000000003
    83   1      10.224999999999993       73.61999999999999      71.575000000000003
    84   1      10.224999999999993      75.664999999999992      69.530000000000001
    85   1      8.1799999999999926       73.61999999999999       73.61999999999999
    86   1      10.224999999999993       73.61999999999999      75.664999999999992
    87   1      10.224999999999993      75.664999999999992       73.61999999999999
    88   1      10.224999999999993      77.709999999999994      67.484999999999999
    89   1      8.1799999999999926      77.709999999999994      69.530000000000001
    90   1      10.224999999999993      77.709999999999994      71.575000000000003
    91   1      10.224999999999993      79.754999999999995      69.530000000000001
    92   1      14.314999999999998      55.214999999999989      69.530000000000001
    93   1      12.269999999999996      59.304999999999993      67.484999999999999
    94   1      14.314999999999998      57.259999999999991      67.484999999999999
    95   1      14.314999999999998      59.304999999999993      65.439999999999998
    96   1      12.269999999999996      57.259999999999991      69.530000000000001
    97   1      12.269999999999996      59.304999999999993      71.575000000000003
    98   1      14.314999999999998      57.259999999999991      71.575000000000003
    99   1      14.314999999999998      59.304999999999993      69.530000000000001
   100   1      14.314999999999998      59.304999999999993       73.61999999999999
   101   1      12.269999999999996      63.394999999999996      63.394999999999996
   102   1      14.314999999999998      61.349999999999987      63.394999999999996
   103   1      14.314999999999998      63.394999999999996      61.349999999999987
   104   1      12.269999999999996      61.349999999999987      65.439999999999998
   105   1      12.269999999999996      63.394999999999996      67.484999999999999
   106   1      14.314999999999998      61.349999999999987      67.484999999999999
   107   1      14.314999999999998      63.394999999999996      65.439999999999998
   108   1      12.269999999999996      61.349999999999987      69.530000000000001
   109   1      12.269999999999996      63.394999999999996      71.575000000000003
   110   1      14.314999999999998      61.349999999999987      71.575000000000003
   111   1      14.314999999999998      63.394999999999996      69.530000000000001
   112   1      12.269999999999996      61.349999999999987       73.61999999999999
   113   1      12.269999999999996      63.394999999999996      75.664999999999992
   114   1      14.314999999999998      61.349999999999987      75.664999999999992
   115   1      14.314999999999998      63.394999999999996       73.61999999999999
   116   1      14.314999999999998      63.394999999999996      77.709999999999994
   117   1      12.269999999999996      67.484999999999999      59.304999999999993
   118   1      14.314999999999998      65.439999999999998      59.304999999999993
   119   1      14.314999999999998      67.484999999999999      57.259999999999991
   120   1      12.269999999999996      65.439999999999998      61.349999999999987
   121   1      12.269999999999996      67.484999999999999      63.394999999999996
   122   1      14.314999999999998      65.439999999999998      63.394999999999996
   123   1      14.314999999999998      67.484999999999999      61.349999999999987
   124   1      12.269999999999996      65.439999999999998      65.439999999999998
   125   1      12.269999999999996      67.484999999999999      67.484999999999999
   126   1      14.314999999999998      65.439999999999998      67.484999999999999
   127   1      14.314999999999998      67.484999999999999      65.439999999999998
   128   1      12.269999999999996      65.439999999999998      69.530000000000001
   129   1      12.269999999999996      67.484999999999999      71.575000000000003
   130   1      14.314999999999998      65.439999999999998      71.575000000000003
   131   1      14.314999999999998      67.484999999999999      69.530000000000001
   132   1      12.269999999999996      65.439999999999998       73.61999999999999
   133   1      12.269999999999996      67.484999999999999      75.664999999999992
   134   1      14.314999999999998      65.439999999999998      75.664999999999992
   135   1      14.314999999999998      67.484999999999999       73.61999999999999
   136   1      12.269999999999996      65.439999999999998      77.709999999999994
   137   1      12.269999999999996      67.484999999999999      79.754999999999995
   138   1      14.314999999999998      65.439999999999998      79.754999999999995
   139   1      14.314999999999998      67.484999999999999      77.709999999999994
   140   1      14.314999999999998      67.484999999999999      81.799999999999997
   141   1      14.314999999999998      69.530000000000001      55.214999999999989
   142   1      12.269999999999996      69.530000000000001      57.259999999999991
   143   1      12.269999999999996      71.575000000000003      59.304999999999993
   144   1      14.314999999999998      69.530000000000001      59.304999999999993
   145   1      14.314999999999998      71.575000000000003      57.259999999999991
   146   1      12.269999999999996      69.530000000000001      61.349999999999987
   147   1      12.269999999999996      71.575000000000003      63.394999999999996
   148   1      14.314999999999998      69.530000000000001      63.394999999999996
   149   1      14.314999999999998      71.575000000000003      61.349999999999987
   150   1      12.269999999999996      69.530000000000001      65.439999999999998
   151   1      12.269999999999996      71.575000000000003      67.484999999999999
   152   1      14.314999999999998      69.530000000000001      67.484999999999999
   153   1      14.314999999999998      71.575000000000003      65.439999999999998
   154   1      12.269999999999996      69.530000000000001      69.530000000000001
   155   1      12.269999999999996      71.575000000000003      71.575000000000003
   156   1      14.314999999999998      69.530000000000001      71.575000000000003
   157   1      14.314999999999998      71.575000000000003      69.530000000000001
   158   1      12.269999999999996      69.530000000000001       73.61999999999999
   159   1      12.269999999999996      71.575000000000003      75.664999999999992
   160   1      14.314999999999998      69.530000000000001      75.664999999999992
   161   1      14.314999999999998      71.575000000000003       73.61999999999999
   162   1      12.269999999999996      69.530000000000001      77.709999999999994
   163   1      12.269999999999996      71.575000000000003      79.754999999999995
   164   1      14.314999999999998      69.530000000000001      79.754999999999995
   165   1      14.314999999999998      71.575000000000003      77.709999999999994
   166   1      12.269999999999996      69.530000000000001      81.799999999999997
   167   1      14.314999999999998      69.530000000000001      83.844999999999999
   168   1      14.314999999999998      71.575000000000003      81.799999999999997
   169   1      14.314999999999998       73.61999999999999      59.304999999999993
   170   1      12.269999999999996       73.61999999999999      61.349999999999987
   171   1      12.269999999999996      75.664999999999992      63.394999999999996
   172   1      14.314999999999998       73.61999999999999      63.394999999999996
   173   1      14.314999999999998      75.664999999999992      61.349999999999987
   174   1      12.269999999999996       73.61999999999999      65.439999999999998
   175   1      12.269999999999996      75.664999999999992      67.484999999999999
   176   1      14.314999999999998       73.61999999999999      67.484999999999999
   177   1      14.314999999999998      75.664999999999992      65.439999999999998
   178   1      12.269999999999996       73.61999999999999      69.530000000000001
   179   1      12.269999999999996      75.664999999999992      71.575000000000003
   180   1      14.314999999999998       73.61999999999999      71.575000000000003
   181   1      14.314999999999998      75.664999999999992      69.530000000000001
   182   1      12.269999999999996       73.61999999999999       73.61999999999999
   183   1      12.269999999999996      75.664999999999992      75.664999999999992
   184   1      14.314999999999998       73.61999999999999      75.664999999999992
   185   1      14.314999999999998      75.664999999999992       73.61999999999999
   186   1      12.269999999999996       73.61999999999999      77.709999999999994
   187   1      14.314999999999998       73.61999999999999      79.754999999999995
   188   1      14.314999999999998      75.664999999999992      77.709999999999994
   189   1      14.314999999999998      77.709999999999994      63.394999999999996
   190   1      12.269999999999996      77.709999999999994      65.439999999999998
   191   1      12.269999999999996      79.754999999999995      67.484999999999999
   192   1      14.314999999999998      77.709999999999994      67.484999999999999
   193   1      14.314999999999998      79.754999999999995      65.439999999999998
   194   1      12.269999999999996      77.709999999999994      69.530000000000001
   195   1      12.269999999999996      79.754999999999995      71.575000000000003
   196   1      14.314999999999998      77.709999999999994      71.575000000000003
   197   1      14.314999999999998      79.754999999999995      69.530000000000001
   198   1      12.269999999999996      77.709999999999994       73.61999999999999
   199   1      14.314999999999998      77.709999999999994      75.664999999999992
   200   1      14.314999999999998      79.754999999999995       73.61999999999999
   201   1      14.314999999999998      81.799999999999997      67.484999999999999
   202   1      12.269999999999996      81.799999999999997      69.530000000000001
   203   1      14.314999999999998      81.799999999999997      71.575000000000003
   204   1      14.314999999999998      83.844999999999999      69.530000000000001
   205   1      18.404999999999994                  51.125      69.530000000000001
   206   1      16.359999999999999      55.214999999999989      67.484999999999999
   207   1      18.404999999999994      53.169999999999995      67.484999999999999
   208   1      18.404999999999994      55.214999999999989      65.439999999999998
   209   1      16.359999999999999      53.169999999999995      69.530000000000001
   210   1      16.359999999999999      55.214999999999989      71.575000000000003
   211   1      18.404999999999994      53.169999999999995      71.575000000000003
   212   1      18.404999999999994      55.214999999999989      69.530000000000001
   213   1      18.404999999999994      55.214999999999989       73.61999999999999
   214   1      16.359999999999999      59.304999999999993      63.394999999999996
   215   1      18.404999999999994      57.259999999999991      63.394999999999996
   216   1      18.404999999999994      59.304999999999993      61.349999999999987
   217   1      16.359999999999999      57.259999999999991      65.439999999999998
   218   1      16.359999999999999      59.304999999999993      67.484999999999999
   219   1      18.404999999999994      57.259999999999991      67.484999999999999
   220   1      18.404999999999994      59.304999999999993      65.439999999999998
   221   1      16.359999999999999      57.259999999999991      69.530000000000001
   222   1      16.359999999999999      59.304999999999993      71.575000000000003
   223   1      18.404999999999994      57.259999999999991      71.575000000000003
   224   1      18.404999999999994      59.304999999999993      69.530000000000001
   225   1      16.359999999999999      57.259999999999991       73.61999999999999
   226   1      16.359999999999999      59.304999999999993      75.664999999999992
   227   1      18.404999999999994      57.259999999999991      75.664999999999992
   228   1      18.404999999999994      59.304999999999993       73.61999999999999
   229   1      18.404999999999994      59.304999999999993      77.709999999999994
   230   1      16.359999999999999      63.394999999999996      59.304999999999993
   231   1      18.404999999999994      61.349999999999987      59.304999999999993
   232   1      18.404999999999994      63.394999999999996      57.259999999999991
   233   1      16.359999999999999      61.349999999999987      61.349999999999987
   234   1      16.359999999999999      63.394999999999996      63.394999999999996
   235   1      18.404999999999994      61.349999999999987      63.394999999999996
   236   1      18.404999999999994      63.394999999999996      61.349999999999987
   237   1      16.359999999999999      61.349999999999987      65.439999999999998
   238   1      16.359999999999999      63.394999999999996      67.484999999999999
   239   1      18.404999999999994      61.349999999999987      67.484999999999999
   240   1      18.404999999999994      63.394999999999996      65.439999999999998
   241   1      16.359999999999999      61.349999999999987      69.530000000000001
   242   1      16.359999999999999      63.394999999999996      71.575000000000003
   243   1      18.404999999999994      61.349999999999987      71.575000000000003
   244   1      18.404999999999994      63.394999999999996      69.530000000000001
   245   1      16.359999999999999      61.349999999999987       73.61999999999999
   246   1      16.359999999999999      63.394999999999996      75.664999999999992
   247   1      18.404999999999994      61.349999999999987      75.664999999999992
   248   1      18.404999999999994      63.394999999999996       73.61999999999999
   249   1      16.359999999999999      61.349999999999987      77.709999999999994
   250   1      16.359999999999999      63.394999999999996      79.754999999999995
   251   1      18.404999999999994      61.349999999999987      79.754999999999995
   252   1      18.404999999999994      63.394999999999996      77.709999999999994
   253   1      18.404999999999994      63.394999999999996      81.799999999999997
   254   1      16.359999999999999      67.484999999999999      55.214999999999989
   255   1      18.404999999999994      65.439999999999998      55.214999999999989
   256   1      18.404999999999994      67.484999999999999      53.169999999999995
   257   1      16.359999999999999      65.439999999999998      57.259999999999991
   258   1      16.359999999999999      67.484999999999999      59.304999999999993
   259   1      18.404999999999994      65.439999999999998      59.304999999999993
   260   1      18.404999999999994      67.484999999999999      57.259999999999991
   261   1      16.359999999999999      65.439999999999998      61.349999999999987
   262   1      16.359999999999999      67.484999999999999      63.394999999999996
   263   1      18.404999999999994      65.439999999999998      63.394999999999996
   264   1      18.404999999999994      67.484999999999999      61.349999999999987
   265   1      16.359999999999999      65.439999999999998      65.439999999999998
   266   1      16.359999999999999      67.484999999999999      67.484999999999999
   267   1      18.404999999999994      65.439999999999998      67.484999999999999
   268   1      18.404999999999994      67.484999999999999      65.439999999999998
   269   1      16.359999999999999      65.439999999999998      69.530000000000001
   270   1      16.359999999999999      67.484999999999999      71.575000000000003
   271   1      18.404999999999994      65.439999999999998      71.575000000000003
   272   1      18.404999999999994      67.484999999999999      69.530000000000001
   273   1      16.359999999999999      65.439999999999998       73.61999999999999
   274   1      16.359999999999999      67.484999999999999      75.664999999999992
   275   1      18.404999999999994      65.439999999999998      75.664999999999992
   276   1      18.404999999999994      67.484999999999999       73.61999999999999
   277   1      16.359999999999999      65.439999999999998      77.709999999999994
   278   1      16.359999999999999      67.484999999999999      79.754999999999995
   279   1      18.404999999999994      65.439999999999998      79.754999999999995
   280   1      18.404999999999994      67.484999999999999      77.709999999999994
   281   1      16.359999999999999      65.439999999999998      81.799999999999997
   282   1      16.359999999999999      67.484999999999999      83.844999999999999
   283   1      18.404999999999994      65.439999999999998      83.844999999999999
   284   1      18.404999999999994      67.484999999999999      81.799999999999997
   285   1      18.404999999999994      67.484999999999999      85.889999999999986
   286   1      18.404999999999994      69.530000000000001                  51.125
   287   1      16.359999999999999      69.530000000000001      53.169999999999995
   288   1      16.359999999999999      71.575000000000003      55.214999999999989
   289   1      18.404999999999994      69.530000000000001      55.214999999999989
   290   1      18.404999999999994      71.575000000000003      53.169999999999995
   291   1      16.359999999999999      69.530000000000001      57.259999999999991
   292   1      16.359999999999999      71.575000000000003      59.304999999999993
   293   1      18.404999999999994      69.530000000000001      59.304999999999993
   294   1      18.404999999999994      71.575000000000003      57.259999999999991
   295   1      16.359999999999999      69.530000000000001      61.349999999999987
   296   1      16.359999999999999      71.575000000000003      63.394999999999996
   297   1      18.404999999999994      69.530000000000001      63.394999999999996
   298   1      18.404999999999994      71.575000000000003      61.349999999999987
   299   1      16.359999999999999      69.530000000000001      65.439999999999998
   300   1      16.359999999999999      71.575000000000003      67.484999999999999
   301   1      18.404999999999994      69.530000000000001      67.484999999999999
   302   1      18.404999999999994      71.575000000000003      65.439999999999998
   303   1      16.359999999999999      69.530000000000001      69.530000000000001
   304   1      16.359999999999999      71.575000000000003      71.575000000000003
   305   1      18.404999999999994      69.530000000000001      71.575000000000003
   306   1      18.404999999999994      71.575000000000003      69.530000000000001
   307   1      16.359999999999999      69.530000000000001       73.61999999999999
   308   1      16.359999999999999      71.575000000000003      75.664999999999992
   309   1      18.404999999999994      69.530000000000001      75.664999999999992
   310   1      18.404999999999994      71.575000000000003       73.61999999999999
   311   1      16.359999999999999      69.530000000000001      77.709999999999994
   312   1      16.359999999999999      71.575000000000003      79.754999999999995
   313   1      18.404999999999994      69.530000000000001      79.754999999999995
   314   1      18.404999999999994      71.575000000000003      77.709999999999994
   315   1      16.359999999999999      69.530000000000001      81.799999999999997
   316   1      16.359999999999999      71.575000000000003      83.844999999999999
   317   1      18.404999999999994      69.530000000000001      83.844999999999999
   318   1      18.404999999999994      71.575000000000003      81.799999999999997
   319   1      16.359999999999999      69.530000000000001      85.889999999999986
   320   1      18.404999999999994      69.530000000000001      87.934999999999988
   321   1      18.404999999999994      71.575000000000003      85.889999999999986
   322   1      18.404999999999994       73.61999999999999      55.214999999999989
   323   1      16.359999999999999       73.61999999999999      57.259999999999991
   324   1      16.359999999999999      75.664999999999992      59.304999999999993
   325   1      18.404999999999994       73.61999999999999      59.304999999999993
   326   1      18.404999999999994      75.664999999999992      57.259999999999991
   327   1      16.359999999999999       73.61999999999999      61.349999999999987
   328   1      16.359999999999999      75.664999999999992      63.394999999999996
   329   1      18.404999999999994       73.61999999999999      63.394999999999996
   330   1      18.404999999999994      75.664999999999992      61.349999999999987
   331   1      16.359999999999999       73.61999999999999      65.439999999999998
   332   1      16.359999999999999      75.664999999999992      67.484999999999999
   333   1      18.404999999999994       73.61999999999999      67.484999999999999
   334   1      18.404999999999994      75.664999999999992      65.439999999999998
   335   1      16.359999999999999       73.61999999999999      69.530000000000001
   336   1      16.359999999999999      75.664999999999992      71.575000000000003
   337   1      18.404999999999994       73.61999999999999      71.575000000000003
   338   1      18.404999999999994      75.664999999999992      69.530000000000001
   339   1      16.359999999999999       73.61999999999999       73.61999999999999
   340   1      16.359999999999999      75.664999999999992      75.664999999999992
   341   1      18.404999999999994       73.61999999999999      75.664999999999992
   342   1      18.404999999999994      75.664999999999992       73.61999999999999
   343   1      16.359999999999999       73.61999999999999      77.709999999999994
   344   1      16.359999999999999      75.664999999999992      79.754999999999995
   345   1      18.404999999999994       73.61999999999999      79.754999999999995
   346   1      18.404999999999994      75.664999999999992      77.709999999999994
   347   1      16.359999999999999       73.61999999999999      81.799999999999997
   348   1      18.404999999999994       73.61999999999999      83.844999999999999
   349   1      18.404999999999994      75.664999999999992      81.799999999999997
   350   1      18.404999999999994      77.709999999999994      59.304999999999993
   351   1      16.359999999999999      77.709999999999994      61.349999999999987
   352   1      16.359999999999999      79.754999999999995      63.394999999999996
   353   1      18.404999999999994      77.709999999999994      63.394999999999996
   354   1      18.404999999999994      79.754999999999995      61.349999999999987
   355   1      16.359999999999999      77.709999999999994      65.439999999999998
   356   1      16.359999999999999      79.754999999999995      67.484999999999999
   357   1      18.404999999999994      77.709999999999994      67.484999999999999
   358   1      18.404999999999994      79.754999999999995      65.439999999999998