model_files/Fe/Fe_30000/Fe_433/data.Fe_433_fcc_29829 (written by ASE) 

29829 	 atoms 
1  atom types
0.0                     114  xlo xhi
0.0                     114  ylo yhi
0.0                     114  zlo zhi


Atoms 

     1   1      113.99999999999999      57.399999999999991      57.399999999999991
     2   1      4.3049999999999926      53.094999999999992      55.964999999999982
     3   1      4.3049999999999926      53.094999999999992      58.834999999999994
     4   1      4.3049999999999926      55.964999999999982      53.094999999999992
     5   1      4.3049999999999926      55.964999999999982      55.964999999999982
     6   1      2.8699999999999974       54.52999999999998      57.399999999999991
     7   1      4.3049999999999926      55.964999999999982      58.834999999999994
     8   1      4.3049999999999926      55.964999999999982      61.704999999999977
     9   1      4.3049999999999926      58.834999999999994      53.094999999999992
    10   1      2.8699999999999974      57.399999999999991       54.52999999999998
    11   1      4.3049999999999926      58.834999999999994      55.964999999999982
    12   1      2.8699999999999974      57.399999999999991      57.399999999999991
    13   1      4.3049999999999926      58.834999999999994      58.834999999999994
    14   1      2.8699999999999974      57.399999999999991      60.269999999999982
    15   1      4.3049999999999926      58.834999999999994      61.704999999999977
    16   1      4.3049999999999926      61.704999999999977      55.964999999999982
    17   1      2.8699999999999974      60.269999999999982      57.399999999999991
    18   1      4.3049999999999926      61.704999999999977      58.834999999999994
    19   1      7.1749999999999972      50.224999999999987      55.964999999999982
    20   1      7.1749999999999972      50.224999999999987      58.834999999999994
    21   1      7.1749999999999972      53.094999999999992      53.094999999999992
    22   1      7.1749999999999972      53.094999999999992      55.964999999999982
    23   1      5.7399999999999949      51.659999999999982      57.399999999999991
    24   1      7.1749999999999972      53.094999999999992      58.834999999999994
    25   1      7.1749999999999972      53.094999999999992      61.704999999999977
    26   1      7.1749999999999972      55.964999999999982      50.224999999999987
    27   1      7.1749999999999972      55.964999999999982      53.094999999999992
    28   1      5.7399999999999949       54.52999999999998       54.52999999999998
    29   1      7.1749999999999972      55.964999999999982      55.964999999999982
    30   1      5.7399999999999949       54.52999999999998      57.399999999999991
    31   1      7.1749999999999972      55.964999999999982      58.834999999999994
    32   1      5.7399999999999949       54.52999999999998      60.269999999999982
    33   1      7.1749999999999972      55.964999999999982      61.704999999999977
    34   1      7.1749999999999972      55.964999999999982      64.574999999999989
    35   1      7.1749999999999972      58.834999999999994      50.224999999999987
    36   1      5.7399999999999949      57.399999999999991      51.659999999999982
    37   1      7.1749999999999972      58.834999999999994      53.094999999999992
    38   1      5.7399999999999949      57.399999999999991       54.52999999999998
    39   1      7.1749999999999972      58.834999999999994      55.964999999999982
    40   1      5.7399999999999949      57.399999999999991      57.399999999999991
    41   1      7.1749999999999972      58.834999999999994      58.834999999999994
    42   1      5.7399999999999949      57.399999999999991      60.269999999999982
    43   1      7.1749999999999972      58.834999999999994      61.704999999999977
    44   1      5.7399999999999949      57.399999999999991      63.139999999999979
    45   1      7.1749999999999972      58.834999999999994      64.574999999999989
    46   1      7.1749999999999972      61.704999999999977      53.094999999999992
    47   1      5.7399999999999949      60.269999999999982       54.52999999999998
    48   1      7.1749999999999972      61.704999999999977      55.964999999999982
    49   1      5.7399999999999949      60.269999999999982      57.399999999999991
    50   1      7.1749999999999972      61.704999999999977      58.834999999999994
    51   1      5.7399999999999949      60.269999999999982      60.269999999999982
    52   1      7.1749999999999972      61.704999999999977      61.704999999999977
    53   1      7.1749999999999972      64.574999999999989      55.964999999999982
    54   1      5.7399999999999949      63.139999999999979      57.399999999999991
    55   1      7.1749999999999972      64.574999999999989      58.834999999999994
    56   1      10.044999999999993       47.35499999999999      55.964999999999982
    57   1      8.6099999999999905       45.91999999999998      57.399999999999991
    58   1      10.044999999999993       47.35499999999999      58.834999999999994
    59   1      10.044999999999993      50.224999999999987      53.094999999999992
    60   1      8.6099999999999905      48.789999999999992       54.52999999999998
    61   1      10.044999999999993      50.224999999999987      55.964999999999982
    62   1      8.6099999999999905      48.789999999999992      57.399999999999991
    63   1      10.044999999999993      50.224999999999987      58.834999999999994
    64   1      8.6099999999999905      48.789999999999992      60.269999999999982
    65   1      10.044999999999993      50.224999999999987      61.704999999999977
    66   1      10.044999999999993      53.094999999999992      50.224999999999987
    67   1      8.6099999999999905      51.659999999999982      51.659999999999982
    68   1      10.044999999999993      53.094999999999992      53.094999999999992
    69   1      8.6099999999999905      51.659999999999982       54.52999999999998
    70   1      10.044999999999993      53.094999999999992      55.964999999999982
    71   1      8.6099999999999905      51.659999999999982      57.399999999999991
    72   1      10.044999999999993      53.094999999999992      58.834999999999994
    73   1      8.6099999999999905      51.659999999999982      60.269999999999982
    74   1      10.044999999999993      53.094999999999992      61.704999999999977
    75   1      8.6099999999999905      51.659999999999982      63.139999999999979
    76   1      10.044999999999993      53.094999999999992      64.574999999999989
    77   1      10.044999999999993      55.964999999999982       47.35499999999999
    78   1      8.6099999999999905       54.52999999999998      48.789999999999992
    79   1      10.044999999999993      55.964999999999982      50.224999999999987
    80   1      8.6099999999999905       54.52999999999998      51.659999999999982
    81   1      10.044999999999993      55.964999999999982      53.094999999999992
    82   1      8.6099999999999905       54.52999999999998       54.52999999999998
    83   1      10.044999999999993      55.964999999999982      55.964999999999982
    84   1      8.6099999999999905       54.52999999999998      57.399999999999991
    85   1      10.044999999999993      55.964999999999982      58.834999999999994
    86   1      8.6099999999999905       54.52999999999998      60.269999999999982
    87   1      10.044999999999993      55.964999999999982      61.704999999999977
    88   1      8.6099999999999905       54.52999999999998      63.139999999999979
    89   1      10.044999999999993      55.964999999999982      64.574999999999989
    90   1      8.6099999999999905       54.52999999999998      66.009999999999991
    91   1      10.044999999999993      55.964999999999982      67.444999999999993
    92   1      8.6099999999999905      57.399999999999991       45.91999999999998
    93   1      10.044999999999993      58.834999999999994       47.35499999999999
    94   1      8.6099999999999905      57.399999999999991      48.789999999999992
    95   1      10.044999999999993      58.834999999999994      50.224999999999987
    96   1      8.6099999999999905      57.399999999999991      51.659999999999982
    97   1      10.044999999999993      58.834999999999994      53.094999999999992
    98   1      8.6099999999999905      57.399999999999991       54.52999999999998
    99   1      10.044999999999993      58.834999999999994      55.964999999999982
   100   1      8.6099999999999905      57.399999999999991      57.399999999999991
   101   1      10.044999999999993      58.834999999999994      58.834999999999994
   102   1      8.6099999999999905      57.399999999999991      60.269999999999982
   103   1      10.044999999999993      58.834999999999994      61.704999999999977
   104   1      8.6099999999999905      57.399999999999991      63.139999999999979
   105   1      10.044999999999993      58.834999999999994      64.574999999999989
   106   1      8.6099999999999905      57.399999999999991      66.009999999999991
   107   1      10.044999999999993      58.834999999999994      67.444999999999993
   108   1      8.6099999999999905      57.399999999999991      68.879999999999981
   109   1      8.6099999999999905      60.269999999999982      48.789999999999992
   110   1      10.044999999999993      61.704999999999977      50.224999999999987
   111   1      8.6099999999999905      60.269999999999982      51.659999999999982
   112   1      10.044999999999993      61.704999999999977      53.094999999999992
   113   1      8.6099999999999905      60.269999999999982       54.52999999999998
   114   1      10.044999999999993      61.704999999999977      55.964999999999982
   115   1      8.6099999999999905      60.269999999999982      57.399999999999991
   116   1      10.044999999999993      61.704999999999977      58.834999999999994
   117   1      8.6099999999999905      60.269999999999982      60.269999999999982
   118   1      10.044999999999993      61.704999999999977      61.704999999999977
   119   1      8.6099999999999905      60.269999999999982      63.139999999999979
   120   1      10.044999999999993      61.704999999999977      64.574999999999989
   121   1      8.6099999999999905      60.269999999999982      66.009999999999991
   122   1      8.6099999999999905      63.139999999999979      51.659999999999982
   123   1      10.044999999999993      64.574999999999989      53.094999999999992
   124   1      8.6099999999999905      63.139999999999979       54.52999999999998
   125   1      10.044999999999993      64.574999999999989      55.964999999999982
   126   1      8.6099999999999905      63.139999999999979      57.399999999999991
   127   1      10.044999999999993      64.574999999999989      58.834999999999994
   128   1      8.6099999999999905      63.139999999999979      60.269999999999982
   129   1      10.044999999999993      64.574999999999989      61.704999999999977
   130   1      8.6099999999999905      63.139999999999979      63.139999999999979
   131   1      8.6099999999999905      66.009999999999991       54.52999999999998
   132   1      10.044999999999993      67.444999999999993      55.964999999999982
   133   1      8.6099999999999905      66.009999999999991      57.399999999999991
   134   1      10.044999999999993      67.444999999999993      58.834999999999994
   135   1      8.6099999999999905      66.009999999999991      60.269999999999982
   136   1      8.6099999999999905      68.879999999999981      57.399999999999991
   137   1      12.914999999999992      41.614999999999988      55.964999999999982
   138   1      12.914999999999992      41.614999999999988      58.834999999999994
   139   1      12.914999999999992      44.484999999999992      53.094999999999992
   140   1      12.914999999999992      44.484999999999992      55.964999999999982
   141   1       11.47999999999999       43.04999999999999      57.399999999999991
   142   1      12.914999999999992      44.484999999999992      58.834999999999994
   143   1      12.914999999999992      44.484999999999992      61.704999999999977
   144   1      12.914999999999992       47.35499999999999      50.224999999999987
   145   1      12.914999999999992       47.35499999999999      53.094999999999992
   146   1       11.47999999999999       45.91999999999998       54.52999999999998
   147   1      12.914999999999992       47.35499999999999      55.964999999999982
   148   1       11.47999999999999       45.91999999999998      57.399999999999991
   149   1      12.914999999999992       47.35499999999999      58.834999999999994
   150   1       11.47999999999999       45.91999999999998      60.269999999999982
   151   1      12.914999999999992       47.35499999999999      61.704999999999977
   152   1      12.914999999999992       47.35499999999999      64.574999999999989
   153   1      12.914999999999992      50.224999999999987       47.35499999999999
   154   1      12.914999999999992      50.224999999999987      50.224999999999987
   155   1       11.47999999999999      48.789999999999992      51.659999999999982
   156   1      12.914999999999992      50.224999999999987      53.094999999999992
   157   1       11.47999999999999      48.789999999999992       54.52999999999998
   158   1      12.914999999999992      50.224999999999987      55.964999999999982
   159   1       11.47999999999999      48.789999999999992      57.399999999999991
   160   1      12.914999999999992      50.224999999999987      58.834999999999994
   161   1       11.47999999999999      48.789999999999992      60.269999999999982
   162   1      12.914999999999992      50.224999999999987      61.704999999999977
   163   1       11.47999999999999      48.789999999999992      63.139999999999979
   164   1      12.914999999999992      50.224999999999987      64.574999999999989
   165   1      12.914999999999992      50.224999999999987      67.444999999999993
   166   1      12.914999999999992      53.094999999999992      44.484999999999992
   167   1      12.914999999999992      53.094999999999992       47.35499999999999
   168   1       11.47999999999999      51.659999999999982      48.789999999999992
   169   1      12.914999999999992      53.094999999999992      50.224999999999987
   170   1       11.47999999999999      51.659999999999982      51.659999999999982
   171   1      12.914999999999992      53.094999999999992      53.094999999999992
   172   1       11.47999999999999      51.659999999999982       54.52999999999998
   173   1      12.914999999999992      53.094999999999992      55.964999999999982
   174   1       11.47999999999999      51.659999999999982      57.399999999999991
   175   1      12.914999999999992      53.094999999999992      58.834999999999994
   176   1       11.47999999999999      51.659999999999982      60.269999999999982
   177   1      12.914999999999992      53.094999999999992      61.704999999999977
   178   1       11.47999999999999      51.659999999999982      63.139999999999979
   179   1      12.914999999999992      53.094999999999992      64.574999999999989
   180   1       11.47999999999999      51.659999999999982      66.009999999999991
   181   1      12.914999999999992      53.094999999999992      67.444999999999993
   182   1      12.914999999999992      53.094999999999992      70.314999999999984
   183   1      12.914999999999992      55.964999999999982      41.614999999999988
   184   1      12.914999999999992      55.964999999999982      44.484999999999992
   185   1       11.47999999999999       54.52999999999998       45.91999999999998
   186   1      12.914999999999992      55.964999999999982       47.35499999999999
   187   1       11.47999999999999       54.52999999999998      48.789999999999992
   188   1      12.914999999999992      55.964999999999982      50.224999999999987
   189   1       11.47999999999999       54.52999999999998      51.659999999999982
   190   1      12.914999999999992      55.964999999999982      53.094999999999992
   191   1       11.47999999999999       54.52999999999998       54.52999999999998
   192   1      12.914999999999992      55.964999999999982      55.964999999999982
   193   1       11.47999999999999       54.52999999999998      57.399999999999991
   194   1      12.914999999999992      55.964999999999982      58.834999999999994
   195   1       11.47999999999999       54.52999999999998      60.269999999999982
   196   1      12.914999999999992      55.964999999999982      61.704999999999977
   197   1       11.47999999999999       54.52999999999998      63.139999999999979
   198   1      12.914999999999992      55.964999999999982      64.574999999999989
   199   1       11.47999999999999       54.52999999999998      66.009999999999991
   200   1      12.914999999999992      55.964999999999982      67.444999999999993
   201   1       11.47999999999999       54.52999999999998      68.879999999999981
   202   1      12.914999999999992      55.964999999999982      70.314999999999984
   203   1      12.914999999999992      55.964999999999982      73.184999999999974
   204   1      12.914999999999992      58.834999999999994      41.614999999999988
   205   1       11.47999999999999      57.399999999999991       43.04999999999999
   206   1      12.914999999999992      58.834999999999994      44.484999999999992
   207   1       11.47999999999999      57.399999999999991       45.91999999999998
   208   1      12.914999999999992      58.834999999999994       47.35499999999999
   209   1       11.47999999999999      57.399999999999991      48.789999999999992
   210   1      12.914999999999992      58.834999999999994      50.224999999999987
   211   1       11.47999999999999      57.399999999999991      51.659999999999982
   212   1      12.914999999999992      58.834999999999994      53.094999999999992
   213   1       11.47999999999999      57.399999999999991       54.52999999999998
   214   1      12.914999999999992      58.834999999999994      55.964999999999982
   215   1       11.47999999999999      57.399999999999991      57.399999999999991
   216   1      12.914999999999992      58.834999999999994      58.834999999999994
   217   1       11.47999999999999      57.399999999999991      60.269999999999982
   218   1      12.914999999999992      58.834999999999994      61.704999999999977
   219   1       11.47999999999999      57.399999999999991      63.139999999999979
   220   1      12.914999999999992      58.834999999999994      64.574999999999989
   221   1       11.47999999999999      57.399999999999991      66.009999999999991
   222   1      12.914999999999992      58.834999999999994      67.444999999999993
   223   1       11.47999999999999      57.399999999999991      68.879999999999981
   224   1      12.914999999999992      58.834999999999994      70.314999999999984
   225   1       11.47999999999999      57.399999999999991      71.749999999999972
   226   1      12.914999999999992      58.834999999999994      73.184999999999974
   227   1      12.914999999999992      61.704999999999977      44.484999999999992
   228   1       11.47999999999999      60.269999999999982       45.91999999999998
   229   1      12.914999999999992      61.704999999999977       47.35499999999999
   230   1       11.47999999999999      60.269999999999982      48.789999999999992
   231   1      12.914999999999992      61.704999999999977      50.224999999999987
   232   1       11.47999999999999      60.269999999999982      51.659999999999982
   233   1      12.914999999999992      61.704999999999977      53.094999999999992
   234   1       11.47999999999999      60.269999999999982       54.52999999999998
   235   1      12.914999999999992      61.704999999999977      55.964999999999982
   236   1       11.47999999999999      60.269999999999982      57.399999999999991
   237   1      12.914999999999992      61.704999999999977      58.834999999999994
   238   1       11.47999999999999      60.269999999999982      60.269999999999982
   239   1      12.914999999999992      61.704999999999977      61.704999999999977
   240   1       11.47999999999999      60.269999999999982      63.139999999999979
   241   1      12.914999999999992      61.704999999999977      64.574999999999989
   242   1       11.47999999999999      60.269999999999982      66.009999999999991
   243   1      12.914999999999992      61.704999999999977      67.444999999999993
   244   1       11.47999999999999      60.269999999999982      68.879999999999981
   245   1      12.914999999999992      61.704999999999977      70.314999999999984
   246   1      12.914999999999992      64.574999999999989       47.35499999999999
   247   1       11.47999999999999      63.139999999999979      48.789999999999992
   248   1      12.914999999999992      64.574999999999989      50.224999999999987
   249   1       11.47999999999999      63.139999999999979      51.659999999999982
   250   1      12.914999999999992      64.574999999999989      53.094999999999992
   251   1       11.47999999999999      63.139999999999979       54.52999999999998
   252   1      12.914999999999992      64.574999999999989      55.964999999999982
   253   1       11.47999999999999      63.139999999999979      57.399999999999991
   254   1      12.914999999999992      64.574999999999989      58.834999999999994
   255   1       11.47999999999999      63.139999999999979      60.269999999999982
   256   1      12.914999999999992      64.574999999999989      61.704999999999977
   257   1       11.47999999999999      63.139999999999979      63.139999999999979
   258   1      12.914999999999992      64.574999999999989      64.574999999999989
   259   1       11.47999999999999      63.139999999999979      66.009999999999991
   260   1      12.914999999999992      64.574999999999989      67.444999999999993
   261   1      12.914999999999992      67.444999999999993      50.224999999999987
   262   1       11.47999999999999      66.009999999999991      51.659999999999982
   263   1      12.914999999999992      67.444999999999993      53.094999999999992
   264   1       11.47999999999999      66.009999999999991       54.52999999999998
   265   1      12.914999999999992      67.444999999999993      55.964999999999982
   266   1       11.47999999999999      66.009999999999991      57.399999999999991
   267   1      12.914999999999992      67.444999999999993      58.834999999999994
   268   1       11.47999999999999      66.009999999999991      60.269999999999982
   269   1      12.914999999999992      67.444999999999993      61.704999999999977
   270   1       11.47999999999999      66.009999999999991      63.139999999999979
   271   1      12.914999999999992      67.444999999999993      64.574999999999989
   272   1      12.914999999999992      70.314999999999984      53.094999999999992
   273   1       11.47999999999999      68.879999999999981       54.52999999999998
   274   1      12.914999999999992      70.314999999999984      55.964999999999982
   275   1       11.47999999999999      68.879999999999981      57.399999999999991
   276   1      12.914999999999992      70.314999999999984      58.834999999999994
   277   1       11.47999999999999      68.879999999999981      60.269999999999982
   278   1      12.914999999999992      70.314999999999984      61.704999999999977
   279   1      12.914999999999992      73.184999999999974      55.964999999999982
   280   1       11.47999999999999      71.749999999999972      57.399999999999991
   281   1      12.914999999999992      73.184999999999974      58.834999999999994
   282   1      15.784999999999995       38.74499999999999      55.964999999999982
   283   1      15.784999999999995       38.74499999999999      58.834999999999994
   284   1      15.784999999999995      41.614999999999988      53.094999999999992
   285   1      15.784999999999995      41.614999999999988      55.964999999999982
   286   1      14.349999999999994      40.179999999999993      57.399999999999991
   287   1      15.784999999999995      41.614999999999988      58.834999999999994
   288   1      15.784999999999995      41.614999999999988      61.704999999999977
   289   1      15.784999999999995      44.484999999999992      50.224999999999987
   290   1      15.784999999999995      44.484999999999992      53.094999999999992
   291   1      14.349999999999994       43.04999999999999       54.52999999999998
   292   1      15.784999999999995      44.484999999999992      55.964999999999982
   293   1      14.349999999999994       43.04999999999999      57.399999999999991
   294   1      15.784999999999995      44.484999999999992      58.834999999999994
   295   1      14.349999999999994       43.04999999999999      60.269999999999982
   296   1      15.784999999999995      44.484999999999992      61.704999999999977
   297   1      15.784999999999995      44.484999999999992      64.574999999999989
   298   1      15.784999999999995       47.35499999999999       47.35499999999999
   299   1      15.784999999999995       47.35499999999999      50.224999999999987
   300   1      14.349999999999994       45.91999999999998      51.659999999999982
   301   1      15.784999999999995       47.35499999999999      53.094999999999992
   302   1      14.349999999999994       45.91999999999998       54.52999999999998
   303   1      15.784999999999995       47.35499999999999      55.964999999999982
   304   1      14.349999999999994       45.91999999999998      57.399999999999991
   305   1      15.784999999999995       47.35499999999999      58.834999999999994
   306   1      14.349999999999994       45.91999999999998      60.269999999999982
   307   1      15.784999999999995       47.35499999999999      61.704999999999977
   308   1      14.349999999999994       45.91999999999998      63.139999999999979
   309   1      15.784999999999995       47.35499999999999      64.574999999999989
   310   1      15.784999999999995       47.35499999999999      67.444999999999993
   311   1      15.784999999999995      50.224999999999987      44.484999999999992
   312   1      15.784999999999995      50.224999999999987       47.35499999999999
   313   1      14.349999999999994      48.789999999999992      48.789999999999992
   314   1      15.784999999999995      50.224999999999987      50.224999999999987
   315   1      14.349999999999994      48.789999999999992      51.659999999999982
   316   1      15.784999999999995      50.224999999999987      53.094999999999992
   317   1      14.349999999999994      48.789999999999992       54.52999999999998
   318   1      15.784999999999995      50.224999999999987      55.964999999999982
   319   1      14.349999999999994      48.789999999999992      57.399999999999991
   320   1      15.784999999999995      50.224999999999987      58.834999999999994
   321   1      14.349999999999994      48.789999999999992      60.269999999999982
   322   1      15.784999999999995      50.224999999999987      61.704999999999977
   323   1      14.349999999999994      48.789999999999992      63.139999999999979
   324   1      15.784999999999995      50.224999999999987      64.574999999999989
   325   1      14.349999999999994      48.789999999999992      66.009999999999991
   326   1      15.784999999999995      50.224999999999987      67.444999999999993
   327   1      15.784999999999995      50.224999999999987      70.314999999999984
   328   1      15.784999999999995      53.094999999999992      41.614999999999988
   329   1      15.784999999999995      53.094999999999992      44.484999999999992
   330   1      14.349999999999994      51.659999999999982       45.91999999999998
   331   1      15.784999999999995      53.094999999999992       47.35499999999999
   332   1      14.349999999999994      51.659999999999982      48.789999999999992
   333   1      15.784999999999995      53.094999999999992      50.224999999999987
   334   1      14.349999999999994      51.659999999999982      51.659999999999982
   335   1      15.784999999999995      53.094999999999992      53.094999999999992
   336   1      14.349999999999994      51.659999999999982       54.52999999999998
   337   1      15.784999999999995      53.094999999999992      55.964999999999982
   338   1      14.349999999999994      51.659999999999982      57.399999999999991
   339   1      15.784999999999995      53.094999999999992      58.834999999999994
   340   1      14.349999999999994      51.659999999999982      60.269999999999982
   341   1      15.784999999999995      53.094999999999992      61.704999999999977
   342   1      14.349999999999994      51.659999999999982      63.139999999999979
   343   1      15.784999999999995      53.094999999999992      64.574999999999989
   344   1      14.349999999999994      51.659999999999982      66.009999999999991
   345   1      15.784999999999995      53.094999999999992      67.444999999999993
   346   1      14.349999999999994      51.659999999999982      68.879999999999981
   347   1      15.784999999999995      53.094999999999992      70.314999999999984
   348   1      15.784999999999995      53.094999999999992      73.184999999999974
   349   1      15.784999999999995      55.964999999999982       38.74499999999999
   350   1      15.784999999999995      55.964999999999982      41.614999999999988
   351   1      14.349999999999994       54.52999999999998       43.04999999999999
   352   1      15.784999999999995      55.964999999999982      44.484999999999992
   353   1      14.349999999999994       54.52999999999998       45.91999999999998
   354   1      15.784999999999995      55.964999999999982       47.35499999999999
   355   1      14.349999999999994       54.52999999999998      48.789999999999992
   356   1      15.784999999999995      55.964999999999982      50.224999999999987
   357   1      14.349999999999994       54.52999999999998      51.659999999999982
   358   1      15.784999999999995      55.964999999999982      53.094999999999992