model_files/Fe/Fe_30000/Fe_522/data.Fe_522_fcc_29845 (written by ASE) 

29845 	 atoms 
1  atom types
0.0                      93  xlo xhi
0.0                      93  ylo yhi
0.0                      93  zlo zhi


Atoms 

     1   1      1.4350000000000096      38.745000000000005      44.485000000000014
     2   1      1.4350000000000096      38.745000000000005      47.355000000000004
     3   1      1.4350000000000096      41.615000000000016      41.615000000000016
     4   1      1.4350000000000096      41.615000000000016      44.485000000000014
     5   1      1.4350000000000096      41.615000000000016      47.355000000000004
     6   1      1.4350000000000096      41.615000000000016      50.225000000000009
     7   1      1.4350000000000096      44.485000000000014      38.745000000000005
     8   1      1.4350000000000096      44.485000000000014      41.615000000000016
     9   1      1.4350000000000096      44.485000000000014      44.485000000000014
    10   1  7.1054273576010019e-15      43.050000000000011      45.920000000000009
    11   1      1.4350000000000096      44.485000000000014      47.355000000000004
    12   1      1.4350000000000096      44.485000000000014      50.225000000000009
    13   1      1.4350000000000096      44.485000000000014      53.095000000000013
    14   1      1.4350000000000096      47.355000000000004      38.745000000000005
    15   1      1.4350000000000096      47.355000000000004      41.615000000000016
    16   1  7.1054273576010019e-15      45.920000000000009      43.050000000000011
    17   1      1.4350000000000096      47.355000000000004      44.485000000000014
    18   1  7.1054273576010019e-15      45.920000000000009      45.920000000000009
    19   1      1.4350000000000096      47.355000000000004      47.355000000000004
    20   1  7.1054273576010019e-15      45.920000000000009      48.790000000000013
    21   1      1.4350000000000096      47.355000000000004      50.225000000000009
    22   1      1.4350000000000096      47.355000000000004      53.095000000000013
    23   1      1.4350000000000096      50.225000000000009      41.615000000000016
    24   1      1.4350000000000096      50.225000000000009      44.485000000000014
    25   1  7.1054273576010019e-15      48.790000000000013      45.920000000000009
    26   1      1.4350000000000096      50.225000000000009      47.355000000000004
    27   1      1.4350000000000096      50.225000000000009      50.225000000000009
    28   1      1.4350000000000096      53.095000000000013      44.485000000000014
    29   1      1.4350000000000096      53.095000000000013      47.355000000000004
    30   1      4.3050000000000068       33.00500000000001      44.485000000000014
    31   1      4.3050000000000068       33.00500000000001      47.355000000000004
    32   1      4.3050000000000068      35.875000000000007      41.615000000000016
    33   1      4.3050000000000068      35.875000000000007      44.485000000000014
    34   1      2.8700000000000121      34.440000000000012      45.920000000000009
    35   1      4.3050000000000068      35.875000000000007      47.355000000000004
    36   1      4.3050000000000068      35.875000000000007      50.225000000000009
    37   1      4.3050000000000068      38.745000000000005      38.745000000000005
    38   1      4.3050000000000068      38.745000000000005      41.615000000000016
    39   1      2.8700000000000121      37.310000000000002      43.050000000000011
    40   1      4.3050000000000068      38.745000000000005      44.485000000000014
    41   1      2.8700000000000121      37.310000000000002      45.920000000000009
    42   1      4.3050000000000068      38.745000000000005      47.355000000000004
    43   1      2.8700000000000121      37.310000000000002      48.790000000000013
    44   1      4.3050000000000068      38.745000000000005      50.225000000000009
    45   1      4.3050000000000068      38.745000000000005      53.095000000000013
    46   1      4.3050000000000068      41.615000000000016      35.875000000000007
    47   1      4.3050000000000068      41.615000000000016      38.745000000000005
    48   1      2.8700000000000121      40.180000000000014      40.180000000000014
    49   1      4.3050000000000068      41.615000000000016      41.615000000000016
    50   1      2.8700000000000121      40.180000000000014      43.050000000000011
    51   1      4.3050000000000068      41.615000000000016      44.485000000000014
    52   1      2.8700000000000121      40.180000000000014      45.920000000000009
    53   1      4.3050000000000068      41.615000000000016      47.355000000000004
    54   1      2.8700000000000121      40.180000000000014      48.790000000000013
    55   1      4.3050000000000068      41.615000000000016      50.225000000000009
    56   1      2.8700000000000121      40.180000000000014      51.660000000000004
    57   1      4.3050000000000068      41.615000000000016      53.095000000000013
    58   1      4.3050000000000068      41.615000000000016      55.965000000000003
    59   1      4.3050000000000068      44.485000000000014       33.00500000000001
    60   1      4.3050000000000068      44.485000000000014      35.875000000000007
    61   1      2.8700000000000121      43.050000000000011      37.310000000000002
    62   1      4.3050000000000068      44.485000000000014      38.745000000000005
    63   1      2.8700000000000121      43.050000000000011      40.180000000000014
    64   1      4.3050000000000068      44.485000000000014      41.615000000000016
    65   1      2.8700000000000121      43.050000000000011      43.050000000000011
    66   1      4.3050000000000068      44.485000000000014      44.485000000000014
    67   1      2.8700000000000121      43.050000000000011      45.920000000000009
    68   1      4.3050000000000068      44.485000000000014      47.355000000000004
    69   1      2.8700000000000121      43.050000000000011      48.790000000000013
    70   1      4.3050000000000068      44.485000000000014      50.225000000000009
    71   1      2.8700000000000121      43.050000000000011      51.660000000000004
    72   1      4.3050000000000068      44.485000000000014      53.095000000000013
    73   1      2.8700000000000121      43.050000000000011      54.530000000000008
    74   1      4.3050000000000068      44.485000000000014      55.965000000000003
    75   1      4.3050000000000068      44.485000000000014      58.835000000000015
    76   1      4.3050000000000068      47.355000000000004       33.00500000000001
    77   1      2.8700000000000121      45.920000000000009      34.440000000000012
    78   1      4.3050000000000068      47.355000000000004      35.875000000000007
    79   1      2.8700000000000121      45.920000000000009      37.310000000000002
    80   1      4.3050000000000068      47.355000000000004      38.745000000000005
    81   1      2.8700000000000121      45.920000000000009      40.180000000000014
    82   1      4.3050000000000068      47.355000000000004      41.615000000000016
    83   1      2.8700000000000121      45.920000000000009      43.050000000000011
    84   1      4.3050000000000068      47.355000000000004      44.485000000000014
    85   1      2.8700000000000121      45.920000000000009      45.920000000000009
    86   1      4.3050000000000068      47.355000000000004      47.355000000000004
    87   1      2.8700000000000121      45.920000000000009      48.790000000000013
    88   1      4.3050000000000068      47.355000000000004      50.225000000000009
    89   1      2.8700000000000121      45.920000000000009      51.660000000000004
    90   1      4.3050000000000068      47.355000000000004      53.095000000000013
    91   1      2.8700000000000121      45.920000000000009      54.530000000000008
    92   1      4.3050000000000068      47.355000000000004      55.965000000000003
    93   1      2.8700000000000121      45.920000000000009      57.400000000000006
    94   1      4.3050000000000068      47.355000000000004      58.835000000000015
    95   1      4.3050000000000068      50.225000000000009      35.875000000000007
    96   1      2.8700000000000121      48.790000000000013      37.310000000000002
    97   1      4.3050000000000068      50.225000000000009      38.745000000000005
    98   1      2.8700000000000121      48.790000000000013      40.180000000000014
    99   1      4.3050000000000068      50.225000000000009      41.615000000000016
   100   1      2.8700000000000121      48.790000000000013      43.050000000000011
   101   1      4.3050000000000068      50.225000000000009      44.485000000000014
   102   1      2.8700000000000121      48.790000000000013      45.920000000000009
   103   1      4.3050000000000068      50.225000000000009      47.355000000000004
   104   1      2.8700000000000121      48.790000000000013      48.790000000000013
   105   1      4.3050000000000068      50.225000000000009      50.225000000000009
   106   1      2.8700000000000121      48.790000000000013      51.660000000000004
   107   1      4.3050000000000068      50.225000000000009      53.095000000000013
   108   1      2.8700000000000121      48.790000000000013      54.530000000000008
   109   1      4.3050000000000068      50.225000000000009      55.965000000000003
   110   1      4.3050000000000068      53.095000000000013      38.745000000000005
   111   1      2.8700000000000121      51.660000000000004      40.180000000000014
   112   1      4.3050000000000068      53.095000000000013      41.615000000000016
   113   1      2.8700000000000121      51.660000000000004      43.050000000000011
   114   1      4.3050000000000068      53.095000000000013      44.485000000000014
   115   1      2.8700000000000121      51.660000000000004      45.920000000000009
   116   1      4.3050000000000068      53.095000000000013      47.355000000000004
   117   1      2.8700000000000121      51.660000000000004      48.790000000000013
   118   1      4.3050000000000068      53.095000000000013      50.225000000000009
   119   1      2.8700000000000121      51.660000000000004      51.660000000000004
   120   1      4.3050000000000068      53.095000000000013      53.095000000000013
   121   1      4.3050000000000068      55.965000000000003      41.615000000000016
   122   1      2.8700000000000121      54.530000000000008      43.050000000000011
   123   1      4.3050000000000068      55.965000000000003      44.485000000000014
   124   1      2.8700000000000121      54.530000000000008      45.920000000000009
   125   1      4.3050000000000068      55.965000000000003      47.355000000000004
   126   1      2.8700000000000121      54.530000000000008      48.790000000000013
   127   1      4.3050000000000068      55.965000000000003      50.225000000000009
   128   1      4.3050000000000068      58.835000000000015      44.485000000000014
   129   1      2.8700000000000121      57.400000000000006      45.920000000000009
   130   1      4.3050000000000068      58.835000000000015      47.355000000000004
   131   1      7.1750000000000114      24.395000000000007      44.485000000000014
   132   1      7.1750000000000114      24.395000000000007      47.355000000000004
   133   1      7.1750000000000114      27.265000000000008      41.615000000000016
   134   1      7.1750000000000114      27.265000000000008      44.485000000000014
   135   1      7.1750000000000114      27.265000000000008      47.355000000000004
   136   1      7.1750000000000114      27.265000000000008      50.225000000000009
   137   1      7.1750000000000114      30.135000000000005      38.745000000000005
   138   1      7.1750000000000114      30.135000000000005      41.615000000000016
   139   1      7.1750000000000114      30.135000000000005      44.485000000000014
   140   1        5.74000000000001       28.70000000000001      45.920000000000009
   141   1      7.1750000000000114      30.135000000000005      47.355000000000004
   142   1      7.1750000000000114      30.135000000000005      50.225000000000009
   143   1      7.1750000000000114      30.135000000000005      53.095000000000013
   144   1      7.1750000000000114       33.00500000000001      35.875000000000007
   145   1      7.1750000000000114       33.00500000000001      38.745000000000005
   146   1      7.1750000000000114       33.00500000000001      41.615000000000016
   147   1        5.74000000000001      31.570000000000011      43.050000000000011
   148   1      7.1750000000000114       33.00500000000001      44.485000000000014
   149   1        5.74000000000001      31.570000000000011      45.920000000000009
   150   1      7.1750000000000114       33.00500000000001      47.355000000000004
   151   1        5.74000000000001      31.570000000000011      48.790000000000013
   152   1      7.1750000000000114       33.00500000000001      50.225000000000009
   153   1      7.1750000000000114       33.00500000000001      53.095000000000013
   154   1      7.1750000000000114       33.00500000000001      55.965000000000003
   155   1      7.1750000000000114      35.875000000000007       33.00500000000001
   156   1      7.1750000000000114      35.875000000000007      35.875000000000007
   157   1      7.1750000000000114      35.875000000000007      38.745000000000005
   158   1        5.74000000000001      34.440000000000012      40.180000000000014
   159   1      7.1750000000000114      35.875000000000007      41.615000000000016
   160   1        5.74000000000001      34.440000000000012      43.050000000000011
   161   1      7.1750000000000114      35.875000000000007      44.485000000000014
   162   1        5.74000000000001      34.440000000000012      45.920000000000009
   163   1      7.1750000000000114      35.875000000000007      47.355000000000004
   164   1        5.74000000000001      34.440000000000012      48.790000000000013
   165   1      7.1750000000000114      35.875000000000007      50.225000000000009
   166   1        5.74000000000001      34.440000000000012      51.660000000000004
   167   1      7.1750000000000114      35.875000000000007      53.095000000000013
   168   1      7.1750000000000114      35.875000000000007      55.965000000000003
   169   1      7.1750000000000114      35.875000000000007      58.835000000000015
   170   1      7.1750000000000114      38.745000000000005      30.135000000000005
   171   1      7.1750000000000114      38.745000000000005       33.00500000000001
   172   1      7.1750000000000114      38.745000000000005      35.875000000000007
   173   1        5.74000000000001      37.310000000000002      37.310000000000002
   174   1      7.1750000000000114      38.745000000000005      38.745000000000005
   175   1        5.74000000000001      37.310000000000002      40.180000000000014
   176   1      7.1750000000000114      38.745000000000005      41.615000000000016
   177   1        5.74000000000001      37.310000000000002      43.050000000000011
   178   1      7.1750000000000114      38.745000000000005      44.485000000000014
   179   1        5.74000000000001      37.310000000000002      45.920000000000009
   180   1      7.1750000000000114      38.745000000000005      47.355000000000004
   181   1        5.74000000000001      37.310000000000002      48.790000000000013
   182   1      7.1750000000000114      38.745000000000005      50.225000000000009
   183   1        5.74000000000001      37.310000000000002      51.660000000000004
   184   1      7.1750000000000114      38.745000000000005      53.095000000000013
   185   1        5.74000000000001      37.310000000000002      54.530000000000008
   186   1      7.1750000000000114      38.745000000000005      55.965000000000003
   187   1      7.1750000000000114      38.745000000000005      58.835000000000015
   188   1      7.1750000000000114      38.745000000000005      61.705000000000005
   189   1      7.1750000000000114      41.615000000000016      27.265000000000008
   190   1      7.1750000000000114      41.615000000000016      30.135000000000005
   191   1      7.1750000000000114      41.615000000000016       33.00500000000001
   192   1        5.74000000000001      40.180000000000014      34.440000000000012
   193   1      7.1750000000000114      41.615000000000016      35.875000000000007
   194   1        5.74000000000001      40.180000000000014      37.310000000000002
   195   1      7.1750000000000114      41.615000000000016      38.745000000000005
   196   1        5.74000000000001      40.180000000000014      40.180000000000014
   197   1      7.1750000000000114      41.615000000000016      41.615000000000016
   198   1        5.74000000000001      40.180000000000014      43.050000000000011
   199   1      7.1750000000000114      41.615000000000016      44.485000000000014
   200   1        5.74000000000001      40.180000000000014      45.920000000000009
   201   1      7.1750000000000114      41.615000000000016      47.355000000000004
   202   1        5.74000000000001      40.180000000000014      48.790000000000013
   203   1      7.1750000000000114      41.615000000000016      50.225000000000009
   204   1        5.74000000000001      40.180000000000014      51.660000000000004
   205   1      7.1750000000000114      41.615000000000016      53.095000000000013
   206   1        5.74000000000001      40.180000000000014      54.530000000000008
   207   1      7.1750000000000114      41.615000000000016      55.965000000000003
   208   1        5.74000000000001      40.180000000000014      57.400000000000006
   209   1      7.1750000000000114      41.615000000000016      58.835000000000015
   210   1      7.1750000000000114      41.615000000000016      61.705000000000005
   211   1      7.1750000000000114      41.615000000000016      64.575000000000003
   212   1      7.1750000000000114      44.485000000000014      24.395000000000007
   213   1      7.1750000000000114      44.485000000000014      27.265000000000008
   214   1      7.1750000000000114      44.485000000000014      30.135000000000005
   215   1        5.74000000000001      43.050000000000011      31.570000000000011
   216   1      7.1750000000000114      44.485000000000014       33.00500000000001
   217   1        5.74000000000001      43.050000000000011      34.440000000000012
   218   1      7.1750000000000114      44.485000000000014      35.875000000000007
   219   1        5.74000000000001      43.050000000000011      37.310000000000002
   220   1      7.1750000000000114      44.485000000000014      38.745000000000005
   221   1        5.74000000000001      43.050000000000011      40.180000000000014
   222   1      7.1750000000000114      44.485000000000014      41.615000000000016
   223   1        5.74000000000001      43.050000000000011      43.050000000000011
   224   1      7.1750000000000114      44.485000000000014      44.485000000000014
   225   1        5.74000000000001      43.050000000000011      45.920000000000009
   226   1      7.1750000000000114      44.485000000000014      47.355000000000004
   227   1        5.74000000000001      43.050000000000011      48.790000000000013
   228   1      7.1750000000000114      44.485000000000014      50.225000000000009
   229   1        5.74000000000001      43.050000000000011      51.660000000000004
   230   1      7.1750000000000114      44.485000000000014      53.095000000000013
   231   1        5.74000000000001      43.050000000000011      54.530000000000008
   232   1      7.1750000000000114      44.485000000000014      55.965000000000003
   233   1        5.74000000000001      43.050000000000011      57.400000000000006
   234   1      7.1750000000000114      44.485000000000014      58.835000000000015
   235   1        5.74000000000001      43.050000000000011       60.27000000000001
   236   1      7.1750000000000114      44.485000000000014      61.705000000000005
   237   1      7.1750000000000114      44.485000000000014      64.575000000000003
   238   1      7.1750000000000114      44.485000000000014      67.445000000000007
   239   1      7.1750000000000114      47.355000000000004      24.395000000000007
   240   1      7.1750000000000114      47.355000000000004      27.265000000000008
   241   1        5.74000000000001      45.920000000000009       28.70000000000001
   242   1      7.1750000000000114      47.355000000000004      30.135000000000005
   243   1        5.74000000000001      45.920000000000009      31.570000000000011
   244   1      7.1750000000000114      47.355000000000004       33.00500000000001
   245   1        5.74000000000001      45.920000000000009      34.440000000000012
   246   1      7.1750000000000114      47.355000000000004      35.875000000000007
   247   1        5.74000000000001      45.920000000000009      37.310000000000002
   248   1      7.1750000000000114      47.355000000000004      38.745000000000005
   249   1        5.74000000000001      45.920000000000009      40.180000000000014
   250   1      7.1750000000000114      47.355000000000004      41.615000000000016
   251   1        5.74000000000001      45.920000000000009      43.050000000000011
   252   1      7.1750000000000114      47.355000000000004      44.485000000000014
   253   1        5.74000000000001      45.920000000000009      45.920000000000009
   254   1      7.1750000000000114      47.355000000000004      47.355000000000004
   255   1        5.74000000000001      45.920000000000009      48.790000000000013
   256   1      7.1750000000000114      47.355000000000004      50.225000000000009
   257   1        5.74000000000001      45.920000000000009      51.660000000000004
   258   1      7.1750000000000114      47.355000000000004      53.095000000000013
   259   1        5.74000000000001      45.920000000000009      54.530000000000008
   260   1      7.1750000000000114      47.355000000000004      55.965000000000003
   261   1        5.74000000000001      45.920000000000009      57.400000000000006
   262   1      7.1750000000000114      47.355000000000004      58.835000000000015
   263   1        5.74000000000001      45.920000000000009       60.27000000000001
   264   1      7.1750000000000114      47.355000000000004      61.705000000000005
   265   1        5.74000000000001      45.920000000000009      63.140000000000001
   266   1      7.1750000000000114      47.355000000000004      64.575000000000003
   267   1      7.1750000000000114      47.355000000000004      67.445000000000007
   268   1      7.1750000000000114      50.225000000000009      27.265000000000008
   269   1      7.1750000000000114      50.225000000000009      30.135000000000005
   270   1        5.74000000000001      48.790000000000013      31.570000000000011
   271   1      7.1750000000000114      50.225000000000009       33.00500000000001
   272   1        5.74000000000001      48.790000000000013      34.440000000000012
   273   1      7.1750000000000114      50.225000000000009      35.875000000000007
   274   1        5.74000000000001      48.790000000000013      37.310000000000002
   275   1      7.1750000000000114      50.225000000000009      38.745000000000005
   276   1        5.74000000000001      48.790000000000013      40.180000000000014
   277   1      7.1750000000000114      50.225000000000009      41.615000000000016
   278   1        5.74000000000001      48.790000000000013      43.050000000000011
   279   1      7.1750000000000114      50.225000000000009      44.485000000000014
   280   1        5.74000000000001      48.790000000000013      45.920000000000009
   281   1      7.1750000000000114      50.225000000000009      47.355000000000004
   282   1        5.74000000000001      48.790000000000013      48.790000000000013
   283   1      7.1750000000000114      50.225000000000009      50.225000000000009
   284   1        5.74000000000001      48.790000000000013      51.660000000000004
   285   1      7.1750000000000114      50.225000000000009      53.095000000000013
   286   1        5.74000000000001      48.790000000000013      54.530000000000008
   287   1      7.1750000000000114      50.225000000000009      55.965000000000003
   288   1        5.74000000000001      48.790000000000013      57.400000000000006
   289   1      7.1750000000000114      50.225000000000009      58.835000000000015
   290   1        5.74000000000001      48.790000000000013       60.27000000000001
   291   1      7.1750000000000114      50.225000000000009      61.705000000000005
   292   1      7.1750000000000114      50.225000000000009      64.575000000000003
   293   1      7.1750000000000114      53.095000000000013      30.135000000000005
   294   1      7.1750000000000114      53.095000000000013       33.00500000000001
   295   1        5.74000000000001      51.660000000000004      34.440000000000012
   296   1      7.1750000000000114      53.095000000000013      35.875000000000007
   297   1        5.74000000000001      51.660000000000004      37.310000000000002
   298   1      7.1750000000000114      53.095000000000013      38.745000000000005
   299   1        5.74000000000001      51.660000000000004      40.180000000000014
   300   1      7.1750000000000114      53.095000000000013      41.615000000000016
   301   1        5.74000000000001      51.660000000000004      43.050000000000011
   302   1      7.1750000000000114      53.095000000000013      44.485000000000014
   303   1        5.74000000000001      51.660000000000004      45.920000000000009
   304   1      7.1750000000000114      53.095000000000013      47.355000000000004
   305   1        5.74000000000001      51.660000000000004      48.790000000000013
   306   1      7.1750000000000114      53.095000000000013      50.225000000000009
   307   1        5.74000000000001      51.660000000000004      51.660000000000004
   308   1      7.1750000000000114      53.095000000000013      53.095000000000013
   309   1        5.74000000000001      51.660000000000004      54.530000000000008
   310   1      7.1750000000000114      53.095000000000013      55.965000000000003
   311   1        5.74000000000001      51.660000000000004      57.400000000000006
   312   1      7.1750000000000114      53.095000000000013      58.835000000000015
   313   1      7.1750000000000114      53.095000000000013      61.705000000000005
   314   1      7.1750000000000114      55.965000000000003       33.00500000000001
   315   1      7.1750000000000114      55.965000000000003      35.875000000000007
   316   1        5.74000000000001      54.530000000000008      37.310000000000002
   317   1      7.1750000000000114      55.965000000000003      38.745000000000005
   318   1        5.74000000000001      54.530000000000008      40.180000000000014
   319   1      7.1750000000000114      55.965000000000003      41.615000000000016
   320   1        5.74000000000001      54.530000000000008      43.050000000000011
   321   1      7.1750000000000114      55.965000000000003      44.485000000000014
   322   1        5.74000000000001      54.530000000000008      45.920000000000009
   323   1      7.1750000000000114      55.965000000000003      47.355000000000004
   324   1        5.74000000000001      54.530000000000008      48.790000000000013
   325   1      7.1750000000000114      55.965000000000003      50.225000000000009
   326   1        5.74000000000001      54.530000000000008      51.660000000000004
   327   1      7.1750000000000114      55.965000000000003      53.095000000000013
   328   1        5.74000000000001      54.530000000000008      54.530000000000008
   329   1      7.1750000000000114      55.965000000000003      55.965000000000003
   330   1      7.1750000000000114      55.965000000000003      58.835000000000015
   331   1      7.1750000000000114      58.835000000000015      35.875000000000007
   332   1      7.1750000000000114      58.835000000000015      38.745000000000005
   333   1        5.74000000000001      57.400000000000006      40.180000000000014
   334   1      7.1750000000000114      58.835000000000015      41.615000000000016
   335   1        5.74000000000001      57.400000000000006      43.050000000000011
   336   1      7.1750000000000114      58.835000000000015      44.485000000000014
   337   1        5.74000000000001      57.400000000000006      45.920000000000009
   338   1      7.1750000000000114      58.835000000000015      47.355000000000004
   339   1        5.74000000000001      57.400000000000006      48.790000000000013
   340   1      7.1750000000000114      58.835000000000015      50.225000000000009
   341   1        5.74000000000001      57.400000000000006      51.660000000000004
   342   1      7.1750000000000114      58.835000000000015      53.095000000000013
   343   1      7.1750000000000114      58.835000000000015      55.965000000000003
   344   1      7.1750000000000114      61.705000000000005      38.745000000000005
   345   1      7.1750000000000114      61.705000000000005      41.615000000000016
   346   1        5.74000000000001       60.27000000000001      43.050000000000011
   347   1      7.1750000000000114      61.705000000000005      44.485000000000014
   348   1        5.74000000000001       60.27000000000001      45.920000000000009
   349   1      7.1750000000000114      61.705000000000005      47.355000000000004
   350   1        5.74000000000001       60.27000000000001      48.790000000000013
   351   1      7.1750000000000114      61.705000000000005      50.225000000000009
   352   1      7.1750000000000114      61.705000000000005      53.095000000000013
   353   1      7.1750000000000114      64.575000000000003      41.615000000000016
   354   1      7.1750000000000114      64.575000000000003      44.485000000000014
   355   1        5.74000000000001      63.140000000000001      45.920000000000009
   356   1      7.1750000000000114      64.575000000000003      47.355000000000004
   357   1      7.1750000000000114      64.575000000000003      50.225000000000009
   358   1      7.1750000000000114      67.445000000000007      44.485000000000014