model_files/Co/Co_30000/Co_521/data.Co_521_hcp_30329 (written by ASE) 

30329 	 atoms 
1  atom types
0.0                      62  xlo xhi
0.0                      62  ylo yhi
0.0                      62  zlo zhi


Atoms 

     1   1  3.5527136788005009e-15      30.119999999999997      31.374999999999996
     2   1  3.5527136788005009e-15      31.374999999999996      30.119999999999997
     3   1  3.5527136788005009e-15      31.374999999999996      32.630000000000003
     4   1  3.5527136788005009e-15      32.630000000000003      31.374999999999996
     5   1      2.5100000000000051      23.845000000000002      30.119999999999997
     6   1      2.5100000000000051      25.100000000000001      28.865000000000002
     7   1      2.5100000000000051      23.845000000000002      32.630000000000003
     8   1      2.5100000000000051      25.100000000000001      31.374999999999996
     9   1      2.5100000000000051      25.100000000000001      33.885000000000005
    10   1      2.5100000000000051                  26.355      27.610000000000003
    11   1      2.5100000000000051      27.610000000000003                  26.355
    12   1      1.2550000000000026      27.610000000000003      30.119999999999997
    13   1      2.5100000000000051                  26.355      30.119999999999997
    14   1      2.5100000000000051      27.610000000000003      28.865000000000002
    15   1      1.2550000000000026                  26.355      31.374999999999996
    16   1      1.2550000000000026      27.610000000000003      32.630000000000003
    17   1      2.5100000000000051                  26.355      32.630000000000003
    18   1      2.5100000000000051      27.610000000000003      31.374999999999996
    19   1      2.5100000000000051                  26.355      35.140000000000008
    20   1      2.5100000000000051      27.610000000000003      33.885000000000005
    21   1      2.5100000000000051      27.610000000000003      36.395000000000003
    22   1      2.5100000000000051      28.865000000000002      25.100000000000001
    23   1      2.5100000000000051      30.119999999999997      23.845000000000002
    24   1      1.2550000000000026      30.119999999999997      27.610000000000003
    25   1      2.5100000000000051      28.865000000000002      27.610000000000003
    26   1      2.5100000000000051      30.119999999999997                  26.355
    27   1      1.2550000000000026      28.865000000000002      28.865000000000002
    28   1      1.2550000000000026      30.119999999999997      30.119999999999997
    29   1      2.5100000000000051      28.865000000000002      30.119999999999997
    30   1      2.5100000000000051      30.119999999999997      28.865000000000002
    31   1      1.2550000000000026      28.865000000000002      31.374999999999996
    32   1      1.2550000000000026      30.119999999999997      32.630000000000003
    33   1      2.5100000000000051      28.865000000000002      32.630000000000003
    34   1      2.5100000000000051      30.119999999999997      31.374999999999996
    35   1      1.2550000000000026      28.865000000000002      33.885000000000005
    36   1      1.2550000000000026      30.119999999999997      35.140000000000008
    37   1      2.5100000000000051      28.865000000000002      35.140000000000008
    38   1      2.5100000000000051      30.119999999999997      33.885000000000005
    39   1      2.5100000000000051      28.865000000000002      37.650000000000006
    40   1      2.5100000000000051      30.119999999999997      36.395000000000003
    41   1      2.5100000000000051      30.119999999999997      38.904999999999994
    42   1      2.5100000000000051      31.374999999999996      25.100000000000001
    43   1      2.5100000000000051      32.630000000000003      23.845000000000002
    44   1      1.2550000000000026      31.374999999999996                  26.355
    45   1      1.2550000000000026      32.630000000000003      27.610000000000003
    46   1      2.5100000000000051      31.374999999999996      27.610000000000003
    47   1      2.5100000000000051      32.630000000000003                  26.355
    48   1      1.2550000000000026      31.374999999999996      28.865000000000002
    49   1      1.2550000000000026      32.630000000000003      30.119999999999997
    50   1      2.5100000000000051      31.374999999999996      30.119999999999997
    51   1      2.5100000000000051      32.630000000000003      28.865000000000002
    52   1      1.2550000000000026      31.374999999999996      31.374999999999996
    53   1      1.2550000000000026      32.630000000000003      32.630000000000003
    54   1      2.5100000000000051      31.374999999999996      32.630000000000003
    55   1      2.5100000000000051      32.630000000000003      31.374999999999996
    56   1      1.2550000000000026      31.374999999999996      33.885000000000005
    57   1      1.2550000000000026      32.630000000000003      35.140000000000008
    58   1      2.5100000000000051      31.374999999999996      35.140000000000008
    59   1      2.5100000000000051      32.630000000000003      33.885000000000005
    60   1      1.2550000000000026      31.374999999999996      36.395000000000003
    61   1      2.5100000000000051      31.374999999999996      37.650000000000006
    62   1      2.5100000000000051      32.630000000000003      36.395000000000003
    63   1      2.5100000000000051      32.630000000000003      38.904999999999994
    64   1      2.5100000000000051      33.885000000000005      25.100000000000001
    65   1      2.5100000000000051      33.885000000000005      27.610000000000003
    66   1      2.5100000000000051      35.140000000000008                  26.355
    67   1      1.2550000000000026      33.885000000000005      28.865000000000002
    68   1      1.2550000000000026      35.140000000000008      30.119999999999997
    69   1      2.5100000000000051      33.885000000000005      30.119999999999997
    70   1      2.5100000000000051      35.140000000000008      28.865000000000002
    71   1      1.2550000000000026      33.885000000000005      31.374999999999996
    72   1      1.2550000000000026      35.140000000000008      32.630000000000003
    73   1      2.5100000000000051      33.885000000000005      32.630000000000003
    74   1      2.5100000000000051      35.140000000000008      31.374999999999996
    75   1      1.2550000000000026      33.885000000000005      33.885000000000005
    76   1      2.5100000000000051      33.885000000000005      35.140000000000008
    77   1      2.5100000000000051      35.140000000000008      33.885000000000005
    78   1      2.5100000000000051      33.885000000000005      37.650000000000006
    79   1      2.5100000000000051      35.140000000000008      36.395000000000003
    80   1      2.5100000000000051      36.395000000000003      27.610000000000003
    81   1      2.5100000000000051      36.395000000000003      30.119999999999997
    82   1      2.5100000000000051      37.650000000000006      28.865000000000002
    83   1      1.2550000000000026      36.395000000000003      31.374999999999996
    84   1      2.5100000000000051      36.395000000000003      32.630000000000003
    85   1      2.5100000000000051      37.650000000000006      31.374999999999996
    86   1      2.5100000000000051      36.395000000000003      35.140000000000008
    87   1      2.5100000000000051      37.650000000000006      33.885000000000005
    88   1      2.5100000000000051      38.904999999999994      30.119999999999997
    89   1      2.5100000000000051      38.904999999999994      32.630000000000003
    90   1      5.0200000000000031      17.570000000000004      31.374999999999996
    91   1      5.0200000000000031      18.825000000000003      27.610000000000003
    92   1      5.0200000000000031      20.080000000000002                  26.355
    93   1      5.0200000000000031      18.825000000000003      30.119999999999997
    94   1      5.0200000000000031      20.080000000000002      28.865000000000002
    95   1      5.0200000000000031      18.825000000000003      32.630000000000003
    96   1      5.0200000000000031      20.080000000000002      31.374999999999996
    97   1      5.0200000000000031      18.825000000000003      35.140000000000008
    98   1      5.0200000000000031      20.080000000000002      33.885000000000005
    99   1      5.0200000000000031      20.080000000000002      36.395000000000003
   100   1      5.0200000000000031      21.335000000000001      22.589999999999996
   101   1      5.0200000000000031      22.589999999999996      21.335000000000001
   102   1      5.0200000000000031      21.335000000000001      25.100000000000001
   103   1      5.0200000000000031      22.589999999999996      23.845000000000002
   104   1      3.7650000000000041      22.589999999999996      27.610000000000003
   105   1      5.0200000000000031      21.335000000000001      27.610000000000003
   106   1      5.0200000000000031      22.589999999999996                  26.355
   107   1      3.7650000000000041      21.335000000000001      28.865000000000002
   108   1      3.7650000000000041      22.589999999999996      30.119999999999997
   109   1      5.0200000000000031      21.335000000000001      30.119999999999997
   110   1      5.0200000000000031      22.589999999999996      28.865000000000002
   111   1      3.7650000000000041      21.335000000000001      31.374999999999996
   112   1      3.7650000000000041      22.589999999999996      32.630000000000003
   113   1      5.0200000000000031      21.335000000000001      32.630000000000003
   114   1      5.0200000000000031      22.589999999999996      31.374999999999996
   115   1      3.7650000000000041      21.335000000000001      33.885000000000005
   116   1      3.7650000000000041      22.589999999999996      35.140000000000008
   117   1      5.0200000000000031      21.335000000000001      35.140000000000008
   118   1      5.0200000000000031      22.589999999999996      33.885000000000005
   119   1      5.0200000000000031      21.335000000000001      37.650000000000006
   120   1      5.0200000000000031      22.589999999999996      36.395000000000003
   121   1      5.0200000000000031      21.335000000000001      40.160000000000004
   122   1      5.0200000000000031      22.589999999999996      38.904999999999994
   123   1      5.0200000000000031      22.589999999999996      41.414999999999999
   124   1      5.0200000000000031      23.845000000000002      22.589999999999996
   125   1      5.0200000000000031      25.100000000000001      21.335000000000001
   126   1      3.7650000000000041      23.845000000000002      23.845000000000002
   127   1      3.7650000000000041      25.100000000000001      25.100000000000001
   128   1      5.0200000000000031      23.845000000000002      25.100000000000001
   129   1      5.0200000000000031      25.100000000000001      23.845000000000002
   130   1      3.7650000000000041      23.845000000000002                  26.355
   131   1      3.7650000000000041      25.100000000000001      27.610000000000003
   132   1      5.0200000000000031      23.845000000000002      27.610000000000003
   133   1      5.0200000000000031      25.100000000000001                  26.355
   134   1      3.7650000000000041      23.845000000000002      28.865000000000002
   135   1      3.7650000000000041      25.100000000000001      30.119999999999997
   136   1      5.0200000000000031      23.845000000000002      30.119999999999997
   137   1      5.0200000000000031      25.100000000000001      28.865000000000002
   138   1      3.7650000000000041      23.845000000000002      31.374999999999996
   139   1      3.7650000000000041      25.100000000000001      32.630000000000003
   140   1      5.0200000000000031      23.845000000000002      32.630000000000003
   141   1      5.0200000000000031      25.100000000000001      31.374999999999996
   142   1      3.7650000000000041      23.845000000000002      33.885000000000005
   143   1      3.7650000000000041      25.100000000000001      35.140000000000008
   144   1      5.0200000000000031      23.845000000000002      35.140000000000008
   145   1      5.0200000000000031      25.100000000000001      33.885000000000005
   146   1      3.7650000000000041      23.845000000000002      36.395000000000003
   147   1      3.7650000000000041      25.100000000000001      37.650000000000006
   148   1      5.0200000000000031      23.845000000000002      37.650000000000006
   149   1      5.0200000000000031      25.100000000000001      36.395000000000003
   150   1      3.7650000000000041      23.845000000000002      38.904999999999994
   151   1      5.0200000000000031      23.845000000000002      40.160000000000004
   152   1      5.0200000000000031      25.100000000000001      38.904999999999994
   153   1      5.0200000000000031      25.100000000000001      41.414999999999999
   154   1      5.0200000000000031                  26.355      20.080000000000002
   155   1      5.0200000000000031      27.610000000000003      18.825000000000003
   156   1      3.7650000000000041      27.610000000000003      22.589999999999996
   157   1      5.0200000000000031                  26.355      22.589999999999996
   158   1      5.0200000000000031      27.610000000000003      21.335000000000001
   159   1      3.7650000000000041                  26.355      23.845000000000002
   160   1      3.7650000000000041      27.610000000000003      25.100000000000001
   161   1      5.0200000000000031                  26.355      25.100000000000001
   162   1      5.0200000000000031      27.610000000000003      23.845000000000002
   163   1      3.7650000000000041                  26.355                  26.355
   164   1      3.7650000000000041      27.610000000000003      27.610000000000003
   165   1      5.0200000000000031                  26.355      27.610000000000003
   166   1      5.0200000000000031      27.610000000000003                  26.355
   167   1      3.7650000000000041                  26.355      28.865000000000002
   168   1      3.7650000000000041      27.610000000000003      30.119999999999997
   169   1      5.0200000000000031                  26.355      30.119999999999997
   170   1      5.0200000000000031      27.610000000000003      28.865000000000002
   171   1      3.7650000000000041                  26.355      31.374999999999996
   172   1      3.7650000000000041      27.610000000000003      32.630000000000003
   173   1      5.0200000000000031                  26.355      32.630000000000003
   174   1      5.0200000000000031      27.610000000000003      31.374999999999996
   175   1      3.7650000000000041                  26.355      33.885000000000005
   176   1      3.7650000000000041      27.610000000000003      35.140000000000008
   177   1      5.0200000000000031                  26.355      35.140000000000008
   178   1      5.0200000000000031      27.610000000000003      33.885000000000005
   179   1      3.7650000000000041                  26.355      36.395000000000003
   180   1      3.7650000000000041      27.610000000000003      37.650000000000006
   181   1      5.0200000000000031                  26.355      37.650000000000006
   182   1      5.0200000000000031      27.610000000000003      36.395000000000003
   183   1      3.7650000000000041                  26.355      38.904999999999994
   184   1      3.7650000000000041      27.610000000000003      40.160000000000004
   185   1      5.0200000000000031                  26.355      40.160000000000004
   186   1      5.0200000000000031      27.610000000000003      38.904999999999994
   187   1      5.0200000000000031                  26.355      42.670000000000002
   188   1      5.0200000000000031      27.610000000000003      41.414999999999999
   189   1      5.0200000000000031      27.610000000000003      43.924999999999997
   190   1      5.0200000000000031      28.865000000000002      20.080000000000002
   191   1      5.0200000000000031      30.119999999999997      18.825000000000003
   192   1      3.7650000000000041      28.865000000000002      21.335000000000001
   193   1      3.7650000000000041      30.119999999999997      22.589999999999996
   194   1      5.0200000000000031      28.865000000000002      22.589999999999996
   195   1      5.0200000000000031      30.119999999999997      21.335000000000001
   196   1      3.7650000000000041      28.865000000000002      23.845000000000002
   197   1      3.7650000000000041      30.119999999999997      25.100000000000001
   198   1      5.0200000000000031      28.865000000000002      25.100000000000001
   199   1      5.0200000000000031      30.119999999999997      23.845000000000002
   200   1      3.7650000000000041      28.865000000000002                  26.355
   201   1      3.7650000000000041      30.119999999999997      27.610000000000003
   202   1      5.0200000000000031      28.865000000000002      27.610000000000003
   203   1      5.0200000000000031      30.119999999999997                  26.355
   204   1      3.7650000000000041      28.865000000000002      28.865000000000002
   205   1      3.7650000000000041      30.119999999999997      30.119999999999997
   206   1      5.0200000000000031      28.865000000000002      30.119999999999997
   207   1      5.0200000000000031      30.119999999999997      28.865000000000002
   208   1      3.7650000000000041      28.865000000000002      31.374999999999996
   209   1      3.7650000000000041      30.119999999999997      32.630000000000003
   210   1      5.0200000000000031      28.865000000000002      32.630000000000003
   211   1      5.0200000000000031      30.119999999999997      31.374999999999996
   212   1      3.7650000000000041      28.865000000000002      33.885000000000005
   213   1      3.7650000000000041      30.119999999999997      35.140000000000008
   214   1      5.0200000000000031      28.865000000000002      35.140000000000008
   215   1      5.0200000000000031      30.119999999999997      33.885000000000005
   216   1      3.7650000000000041      28.865000000000002      36.395000000000003
   217   1      3.7650000000000041      30.119999999999997      37.650000000000006
   218   1      5.0200000000000031      28.865000000000002      37.650000000000006
   219   1      5.0200000000000031      30.119999999999997      36.395000000000003
   220   1      3.7650000000000041      28.865000000000002      38.904999999999994
   221   1      3.7650000000000041      30.119999999999997      40.160000000000004
   222   1      5.0200000000000031      28.865000000000002      40.160000000000004
   223   1      5.0200000000000031      30.119999999999997      38.904999999999994
   224   1      3.7650000000000041      28.865000000000002      41.414999999999999
   225   1      5.0200000000000031      28.865000000000002      42.670000000000002
   226   1      5.0200000000000031      30.119999999999997      41.414999999999999
   227   1      5.0200000000000031      30.119999999999997      43.924999999999997
   228   1      5.0200000000000031      31.374999999999996      17.570000000000004
   229   1      5.0200000000000031      31.374999999999996      20.080000000000002
   230   1      5.0200000000000031      32.630000000000003      18.825000000000003
   231   1      3.7650000000000041      31.374999999999996      21.335000000000001
   232   1      3.7650000000000041      32.630000000000003      22.589999999999996
   233   1      5.0200000000000031      31.374999999999996      22.589999999999996
   234   1      5.0200000000000031      32.630000000000003      21.335000000000001
   235   1      3.7650000000000041      31.374999999999996      23.845000000000002
   236   1      3.7650000000000041      32.630000000000003      25.100000000000001
   237   1      5.0200000000000031      31.374999999999996      25.100000000000001
   238   1      5.0200000000000031      32.630000000000003      23.845000000000002
   239   1      3.7650000000000041      31.374999999999996                  26.355
   240   1      3.7650000000000041      32.630000000000003      27.610000000000003
   241   1      5.0200000000000031      31.374999999999996      27.610000000000003
   242   1      5.0200000000000031      32.630000000000003                  26.355
   243   1      3.7650000000000041      31.374999999999996      28.865000000000002
   244   1      3.7650000000000041      32.630000000000003      30.119999999999997
   245   1      5.0200000000000031      31.374999999999996      30.119999999999997
   246   1      5.0200000000000031      32.630000000000003      28.865000000000002
   247   1      3.7650000000000041      31.374999999999996      31.374999999999996
   248   1      3.7650000000000041      32.630000000000003      32.630000000000003
   249   1      5.0200000000000031      31.374999999999996      32.630000000000003
   250   1      5.0200000000000031      32.630000000000003      31.374999999999996
   251   1      3.7650000000000041      31.374999999999996      33.885000000000005
   252   1      3.7650000000000041      32.630000000000003      35.140000000000008
   253   1      5.0200000000000031      31.374999999999996      35.140000000000008
   254   1      5.0200000000000031      32.630000000000003      33.885000000000005
   255   1      3.7650000000000041      31.374999999999996      36.395000000000003
   256   1      3.7650000000000041      32.630000000000003      37.650000000000006
   257   1      5.0200000000000031      31.374999999999996      37.650000000000006
   258   1      5.0200000000000031      32.630000000000003      36.395000000000003
   259   1      3.7650000000000041      31.374999999999996      38.904999999999994
   260   1      3.7650000000000041      32.630000000000003      40.160000000000004
   261   1      5.0200000000000031      31.374999999999996      40.160000000000004
   262   1      5.0200000000000031      32.630000000000003      38.904999999999994
   263   1      3.7650000000000041      31.374999999999996      41.414999999999999
   264   1      5.0200000000000031      31.374999999999996      42.670000000000002
   265   1      5.0200000000000031      32.630000000000003      41.414999999999999
   266   1      5.0200000000000031      31.374999999999996      45.179999999999993
   267   1      5.0200000000000031      32.630000000000003      43.924999999999997
   268   1      5.0200000000000031      33.885000000000005      20.080000000000002
   269   1      5.0200000000000031      35.140000000000008      18.825000000000003
   270   1      3.7650000000000041      33.885000000000005      21.335000000000001
   271   1      3.7650000000000041      35.140000000000008      22.589999999999996
   272   1      5.0200000000000031      33.885000000000005      22.589999999999996
   273   1      5.0200000000000031      35.140000000000008      21.335000000000001
   274   1      3.7650000000000041      33.885000000000005      23.845000000000002
   275   1      3.7650000000000041      35.140000000000008      25.100000000000001
   276   1      5.0200000000000031      33.885000000000005      25.100000000000001
   277   1      5.0200000000000031      35.140000000000008      23.845000000000002
   278   1      3.7650000000000041      33.885000000000005                  26.355
   279   1      3.7650000000000041      35.140000000000008      27.610000000000003
   280   1      5.0200000000000031      33.885000000000005      27.610000000000003
   281   1      5.0200000000000031      35.140000000000008                  26.355
   282   1      3.7650000000000041      33.885000000000005      28.865000000000002
   283   1      3.7650000000000041      35.140000000000008      30.119999999999997
   284   1      5.0200000000000031      33.885000000000005      30.119999999999997
   285   1      5.0200000000000031      35.140000000000008      28.865000000000002
   286   1      3.7650000000000041      33.885000000000005      31.374999999999996
   287   1      3.7650000000000041      35.140000000000008      32.630000000000003
   288   1      5.0200000000000031      33.885000000000005      32.630000000000003
   289   1      5.0200000000000031      35.140000000000008      31.374999999999996
   290   1      3.7650000000000041      33.885000000000005      33.885000000000005
   291   1      3.7650000000000041      35.140000000000008      35.140000000000008
   292   1      5.0200000000000031      33.885000000000005      35.140000000000008
   293   1      5.0200000000000031      35.140000000000008      33.885000000000005
   294   1      3.7650000000000041      33.885000000000005      36.395000000000003
   295   1      3.7650000000000041      35.140000000000008      37.650000000000006
   296   1      5.0200000000000031      33.885000000000005      37.650000000000006
   297   1      5.0200000000000031      35.140000000000008      36.395000000000003
   298   1      3.7650000000000041      33.885000000000005      38.904999999999994
   299   1      3.7650000000000041      35.140000000000008      40.160000000000004
   300   1      5.0200000000000031      33.885000000000005      40.160000000000004
   301   1      5.0200000000000031      35.140000000000008      38.904999999999994
   302   1      3.7650000000000041      33.885000000000005      41.414999999999999
   303   1      5.0200000000000031      33.885000000000005      42.670000000000002
   304   1      5.0200000000000031      35.140000000000008      41.414999999999999
   305   1      5.0200000000000031      35.140000000000008      43.924999999999997
   306   1      5.0200000000000031      36.395000000000003      20.080000000000002
   307   1      5.0200000000000031      36.395000000000003      22.589999999999996
   308   1      5.0200000000000031      37.650000000000006      21.335000000000001
   309   1      3.7650000000000041      36.395000000000003      23.845000000000002
   310   1      3.7650000000000041      37.650000000000006      25.100000000000001
   311   1      5.0200000000000031      36.395000000000003      25.100000000000001
   312   1      5.0200000000000031      37.650000000000006      23.845000000000002
   313   1      3.7650000000000041      36.395000000000003                  26.355
   314   1      3.7650000000000041      37.650000000000006      27.610000000000003
   315   1      5.0200000000000031      36.395000000000003      27.610000000000003
   316   1      5.0200000000000031      37.650000000000006                  26.355
   317   1      3.7650000000000041      36.395000000000003      28.865000000000002
   318   1      3.7650000000000041      37.650000000000006      30.119999999999997
   319   1      5.0200000000000031      36.395000000000003      30.119999999999997
   320   1      5.0200000000000031      37.650000000000006      28.865000000000002
   321   1      3.7650000000000041      36.395000000000003      31.374999999999996
   322   1      3.7650000000000041      37.650000000000006      32.630000000000003
   323   1      5.0200000000000031      36.395000000000003      32.630000000000003
   324   1      5.0200000000000031      37.650000000000006      31.374999999999996
   325   1      3.7650000000000041      36.395000000000003      33.885000000000005
   326   1      3.7650000000000041      37.650000000000006      35.140000000000008
   327   1      5.0200000000000031      36.395000000000003      35.140000000000008
   328   1      5.0200000000000031      37.650000000000006      33.885000000000005
   329   1      3.7650000000000041      36.395000000000003      36.395000000000003
   330   1      3.7650000000000041      37.650000000000006      37.650000000000006
   331   1      5.0200000000000031      36.395000000000003      37.650000000000006
   332   1      5.0200000000000031      37.650000000000006      36.395000000000003
   333   1      3.7650000000000041      36.395000000000003      38.904999999999994
   334   1      5.0200000000000031      36.395000000000003      40.160000000000004
   335   1      5.0200000000000031      37.650000000000006      38.904999999999994
   336   1      5.0200000000000031      36.395000000000003      42.670000000000002
   337   1      5.0200000000000031      37.650000000000006      41.414999999999999
   338   1      5.0200000000000031      38.904999999999994      22.589999999999996
   339   1      5.0200000000000031      40.160000000000004      21.335000000000001
   340   1      3.7650000000000041      38.904999999999994      23.845000000000002
   341   1      5.0200000000000031      38.904999999999994      25.100000000000001
   342   1      5.0200000000000031      40.160000000000004      23.845000000000002
   343   1      3.7650000000000041      38.904999999999994                  26.355
   344   1      3.7650000000000041      40.160000000000004      27.610000000000003
   345   1      5.0200000000000031      38.904999999999994      27.610000000000003
   346   1      5.0200000000000031      40.160000000000004                  26.355
   347   1      3.7650000000000041      38.904999999999994      28.865000000000002
   348   1      3.7650000000000041      40.160000000000004      30.119999999999997
   349   1      5.0200000000000031      38.904999999999994      30.119999999999997
   350   1      5.0200000000000031      40.160000000000004      28.865000000000002
   351   1      3.7650000000000041      38.904999999999994      31.374999999999996
   352   1      3.7650000000000041      40.160000000000004      32.630000000000003
   353   1      5.0200000000000031      38.904999999999994      32.630000000000003
   354   1      5.0200000000000031      40.160000000000004      31.374999999999996
   355   1      3.7650000000000041      38.904999999999994      33.885000000000005
   356   1      3.7650000000000041      40.160000000000004      35.140000000000008
   357   1      5.0200000000000031      38.904999999999994      35.140000000000008
   358   1      5.0200000000000031      40.160000000000004      33.885000000000005