model_files/Au/Au_30000/Au_441/data.Au_441_fcc_30129 (written by ASE) 

30129 	 atoms 
1  atom types
0.0                     130  xlo xhi
0.0                     130  ylo yhi
0.0                     130  zlo zhi


Atoms 

     1   1      2.0400000000000138      63.240000000000023      65.280000000000015
     2   1      2.0400000000000138      65.280000000000015      63.240000000000023
     3   1  1.4210854715202004e-14      65.280000000000015      65.280000000000015
     4   1      2.0400000000000138      65.280000000000015      67.320000000000022
     5   1      2.0400000000000138      67.320000000000022      65.280000000000015
     6   1      6.1200000000000188      59.160000000000025      65.280000000000015
     7   1      4.0800000000000125      63.240000000000023      63.240000000000023
     8   1      6.1200000000000188      61.200000000000024      63.240000000000023
     9   1      6.1200000000000188      63.240000000000023      61.200000000000024
    10   1      4.0800000000000125      61.200000000000024      65.280000000000015
    11   1      4.0800000000000125      63.240000000000023      67.320000000000022
    12   1      6.1200000000000188      61.200000000000024      67.320000000000022
    13   1      6.1200000000000188      63.240000000000023      65.280000000000015
    14   1      6.1200000000000188      63.240000000000023      69.360000000000014
    15   1      6.1200000000000188      65.280000000000015      59.160000000000025
    16   1      4.0800000000000125      65.280000000000015      61.200000000000024
    17   1      4.0800000000000125      67.320000000000022      63.240000000000023
    18   1      6.1200000000000188      65.280000000000015      63.240000000000023
    19   1      6.1200000000000188      67.320000000000022      61.200000000000024
    20   1      4.0800000000000125      65.280000000000015      65.280000000000015
    21   1      4.0800000000000125      67.320000000000022      67.320000000000022
    22   1      6.1200000000000188      65.280000000000015      67.320000000000022
    23   1      6.1200000000000188      67.320000000000022      65.280000000000015
    24   1      4.0800000000000125      65.280000000000015      69.360000000000014
    25   1      6.1200000000000188      65.280000000000015       71.40000000000002
    26   1      6.1200000000000188      67.320000000000022      69.360000000000014
    27   1      6.1200000000000188      69.360000000000014      63.240000000000023
    28   1      4.0800000000000125      69.360000000000014      65.280000000000015
    29   1      6.1200000000000188      69.360000000000014      67.320000000000022
    30   1      6.1200000000000188       71.40000000000002      65.280000000000015
    31   1      10.200000000000017       55.08000000000002      65.280000000000015
    32   1      8.1600000000000179      59.160000000000025      59.160000000000025
    33   1      10.200000000000017      57.120000000000019      59.160000000000025
    34   1      10.200000000000017      59.160000000000025      57.120000000000019
    35   1      8.1600000000000179      59.160000000000025      63.240000000000023
    36   1      10.200000000000017      57.120000000000019      63.240000000000023
    37   1      10.200000000000017      59.160000000000025      61.200000000000024
    38   1      8.1600000000000179      57.120000000000019      65.280000000000015
    39   1      8.1600000000000179      59.160000000000025      67.320000000000022
    40   1      10.200000000000017      57.120000000000019      67.320000000000022
    41   1      10.200000000000017      59.160000000000025      65.280000000000015
    42   1      8.1600000000000179      59.160000000000025       71.40000000000002
    43   1      10.200000000000017      57.120000000000019       71.40000000000002
    44   1      10.200000000000017      59.160000000000025      69.360000000000014
    45   1      10.200000000000017      59.160000000000025      73.440000000000026
    46   1      8.1600000000000179      63.240000000000023      59.160000000000025
    47   1      10.200000000000017      61.200000000000024      59.160000000000025
    48   1      10.200000000000017      63.240000000000023      57.120000000000019
    49   1      8.1600000000000179      61.200000000000024      61.200000000000024
    50   1      8.1600000000000179      63.240000000000023      63.240000000000023
    51   1      10.200000000000017      61.200000000000024      63.240000000000023
    52   1      10.200000000000017      63.240000000000023      61.200000000000024
    53   1      8.1600000000000179      61.200000000000024      65.280000000000015
    54   1      8.1600000000000179      63.240000000000023      67.320000000000022
    55   1      10.200000000000017      61.200000000000024      67.320000000000022
    56   1      10.200000000000017      63.240000000000023      65.280000000000015
    57   1      8.1600000000000179      61.200000000000024      69.360000000000014
    58   1      8.1600000000000179      63.240000000000023       71.40000000000002
    59   1      10.200000000000017      61.200000000000024       71.40000000000002
    60   1      10.200000000000017      63.240000000000023      69.360000000000014
    61   1      10.200000000000017      63.240000000000023      73.440000000000026
    62   1      10.200000000000017      65.280000000000015       55.08000000000002
    63   1      8.1600000000000179      65.280000000000015      57.120000000000019
    64   1      8.1600000000000179      67.320000000000022      59.160000000000025
    65   1      10.200000000000017      65.280000000000015      59.160000000000025
    66   1      10.200000000000017      67.320000000000022      57.120000000000019
    67   1      8.1600000000000179      65.280000000000015      61.200000000000024
    68   1      8.1600000000000179      67.320000000000022      63.240000000000023
    69   1      10.200000000000017      65.280000000000015      63.240000000000023
    70   1      10.200000000000017      67.320000000000022      61.200000000000024
    71   1      8.1600000000000179      65.280000000000015      65.280000000000015
    72   1      8.1600000000000179      67.320000000000022      67.320000000000022
    73   1      10.200000000000017      65.280000000000015      67.320000000000022
    74   1      10.200000000000017      67.320000000000022      65.280000000000015
    75   1      8.1600000000000179      65.280000000000015      69.360000000000014
    76   1      8.1600000000000179      67.320000000000022       71.40000000000002
    77   1      10.200000000000017      65.280000000000015       71.40000000000002
    78   1      10.200000000000017      67.320000000000022      69.360000000000014
    79   1      8.1600000000000179      65.280000000000015      73.440000000000026
    80   1      10.200000000000017      65.280000000000015      75.480000000000018
    81   1      10.200000000000017      67.320000000000022      73.440000000000026
    82   1      8.1600000000000179       71.40000000000002      59.160000000000025
    83   1      10.200000000000017      69.360000000000014      59.160000000000025
    84   1      10.200000000000017       71.40000000000002      57.120000000000019
    85   1      8.1600000000000179      69.360000000000014      61.200000000000024
    86   1      8.1600000000000179       71.40000000000002      63.240000000000023
    87   1      10.200000000000017      69.360000000000014      63.240000000000023
    88   1      10.200000000000017       71.40000000000002      61.200000000000024
    89   1      8.1600000000000179      69.360000000000014      65.280000000000015
    90   1      8.1600000000000179       71.40000000000002      67.320000000000022
    91   1      10.200000000000017      69.360000000000014      67.320000000000022
    92   1      10.200000000000017       71.40000000000002      65.280000000000015
    93   1      8.1600000000000179      69.360000000000014      69.360000000000014
    94   1      8.1600000000000179       71.40000000000002       71.40000000000002
    95   1      10.200000000000017      69.360000000000014       71.40000000000002
    96   1      10.200000000000017       71.40000000000002      69.360000000000014
    97   1      10.200000000000017       71.40000000000002      73.440000000000026
    98   1      10.200000000000017      73.440000000000026      59.160000000000025
    99   1      10.200000000000017      73.440000000000026      63.240000000000023
   100   1      8.1600000000000179      73.440000000000026      65.280000000000015
   101   1      10.200000000000017      73.440000000000026      67.320000000000022
   102   1      10.200000000000017      75.480000000000018      65.280000000000015
   103   1      10.200000000000017      73.440000000000026       71.40000000000002
   104   1      14.280000000000015      51.000000000000014      65.280000000000015
   105   1      12.240000000000016       55.08000000000002       55.08000000000002
   106   1      14.280000000000015      53.040000000000028       55.08000000000002
   107   1      14.280000000000015       55.08000000000002      53.040000000000028
   108   1      12.240000000000016       55.08000000000002      59.160000000000025
   109   1      14.280000000000015      53.040000000000028      59.160000000000025
   110   1      14.280000000000015       55.08000000000002      57.120000000000019
   111   1      12.240000000000016       55.08000000000002      63.240000000000023
   112   1      14.280000000000015      53.040000000000028      63.240000000000023
   113   1      14.280000000000015       55.08000000000002      61.200000000000024
   114   1      12.240000000000016      53.040000000000028      65.280000000000015
   115   1      12.240000000000016       55.08000000000002      67.320000000000022
   116   1      14.280000000000015      53.040000000000028      67.320000000000022
   117   1      14.280000000000015       55.08000000000002      65.280000000000015
   118   1      12.240000000000016       55.08000000000002       71.40000000000002
   119   1      14.280000000000015      53.040000000000028       71.40000000000002
   120   1      14.280000000000015       55.08000000000002      69.360000000000014
   121   1      12.240000000000016       55.08000000000002      75.480000000000018
   122   1      14.280000000000015      53.040000000000028      75.480000000000018
   123   1      14.280000000000015       55.08000000000002      73.440000000000026
   124   1      14.280000000000015       55.08000000000002       77.52000000000001
   125   1      12.240000000000016      59.160000000000025       55.08000000000002
   126   1      14.280000000000015      57.120000000000019       55.08000000000002
   127   1      14.280000000000015      59.160000000000025      53.040000000000028
   128   1      12.240000000000016      57.120000000000019      57.120000000000019
   129   1      12.240000000000016      59.160000000000025      59.160000000000025
   130   1      14.280000000000015      57.120000000000019      59.160000000000025
   131   1      14.280000000000015      59.160000000000025      57.120000000000019
   132   1      12.240000000000016      57.120000000000019      61.200000000000024
   133   1      12.240000000000016      59.160000000000025      63.240000000000023
   134   1      14.280000000000015      57.120000000000019      63.240000000000023
   135   1      14.280000000000015      59.160000000000025      61.200000000000024
   136   1      12.240000000000016      57.120000000000019      65.280000000000015
   137   1      12.240000000000016      59.160000000000025      67.320000000000022
   138   1      14.280000000000015      57.120000000000019      67.320000000000022
   139   1      14.280000000000015      59.160000000000025      65.280000000000015
   140   1      12.240000000000016      57.120000000000019      69.360000000000014
   141   1      12.240000000000016      59.160000000000025       71.40000000000002
   142   1      14.280000000000015      57.120000000000019       71.40000000000002
   143   1      14.280000000000015      59.160000000000025      69.360000000000014
   144   1      12.240000000000016      57.120000000000019      73.440000000000026
   145   1      12.240000000000016      59.160000000000025      75.480000000000018
   146   1      14.280000000000015      57.120000000000019      75.480000000000018
   147   1      14.280000000000015      59.160000000000025      73.440000000000026
   148   1      14.280000000000015      59.160000000000025       77.52000000000001
   149   1      12.240000000000016      63.240000000000023       55.08000000000002
   150   1      14.280000000000015      61.200000000000024       55.08000000000002
   151   1      14.280000000000015      63.240000000000023      53.040000000000028
   152   1      12.240000000000016      61.200000000000024      57.120000000000019
   153   1      12.240000000000016      63.240000000000023      59.160000000000025
   154   1      14.280000000000015      61.200000000000024      59.160000000000025
   155   1      14.280000000000015      63.240000000000023      57.120000000000019
   156   1      12.240000000000016      61.200000000000024      61.200000000000024
   157   1      12.240000000000016      63.240000000000023      63.240000000000023
   158   1      14.280000000000015      61.200000000000024      63.240000000000023
   159   1      14.280000000000015      63.240000000000023      61.200000000000024
   160   1      12.240000000000016      61.200000000000024      65.280000000000015
   161   1      12.240000000000016      63.240000000000023      67.320000000000022
   162   1      14.280000000000015      61.200000000000024      67.320000000000022
   163   1      14.280000000000015      63.240000000000023      65.280000000000015
   164   1      12.240000000000016      61.200000000000024      69.360000000000014
   165   1      12.240000000000016      63.240000000000023       71.40000000000002
   166   1      14.280000000000015      61.200000000000024       71.40000000000002
   167   1      14.280000000000015      63.240000000000023      69.360000000000014
   168   1      12.240000000000016      61.200000000000024      73.440000000000026
   169   1      12.240000000000016      63.240000000000023      75.480000000000018
   170   1      14.280000000000015      61.200000000000024      75.480000000000018
   171   1      14.280000000000015      63.240000000000023      73.440000000000026
   172   1      14.280000000000015      63.240000000000023       77.52000000000001
   173   1      14.280000000000015      65.280000000000015      51.000000000000014
   174   1      12.240000000000016      65.280000000000015      53.040000000000028
   175   1      12.240000000000016      67.320000000000022       55.08000000000002
   176   1      14.280000000000015      65.280000000000015       55.08000000000002
   177   1      14.280000000000015      67.320000000000022      53.040000000000028
   178   1      12.240000000000016      65.280000000000015      57.120000000000019
   179   1      12.240000000000016      67.320000000000022      59.160000000000025
   180   1      14.280000000000015      65.280000000000015      59.160000000000025
   181   1      14.280000000000015      67.320000000000022      57.120000000000019
   182   1      12.240000000000016      65.280000000000015      61.200000000000024
   183   1      12.240000000000016      67.320000000000022      63.240000000000023
   184   1      14.280000000000015      65.280000000000015      63.240000000000023
   185   1      14.280000000000015      67.320000000000022      61.200000000000024
   186   1      12.240000000000016      65.280000000000015      65.280000000000015
   187   1      12.240000000000016      67.320000000000022      67.320000000000022
   188   1      14.280000000000015      65.280000000000015      67.320000000000022
   189   1      14.280000000000015      67.320000000000022      65.280000000000015
   190   1      12.240000000000016      65.280000000000015      69.360000000000014
   191   1      12.240000000000016      67.320000000000022       71.40000000000002
   192   1      14.280000000000015      65.280000000000015       71.40000000000002
   193   1      14.280000000000015      67.320000000000022      69.360000000000014
   194   1      12.240000000000016      65.280000000000015      73.440000000000026
   195   1      12.240000000000016      67.320000000000022      75.480000000000018
   196   1      14.280000000000015      65.280000000000015      75.480000000000018
   197   1      14.280000000000015      67.320000000000022      73.440000000000026
   198   1      12.240000000000016      65.280000000000015       77.52000000000001
   199   1      14.280000000000015      65.280000000000015      79.560000000000031
   200   1      14.280000000000015      67.320000000000022       77.52000000000001
   201   1      12.240000000000016       71.40000000000002       55.08000000000002
   202   1      14.280000000000015      69.360000000000014       55.08000000000002
   203   1      14.280000000000015       71.40000000000002      53.040000000000028
   204   1      12.240000000000016      69.360000000000014      57.120000000000019
   205   1      12.240000000000016       71.40000000000002      59.160000000000025
   206   1      14.280000000000015      69.360000000000014      59.160000000000025
   207   1      14.280000000000015       71.40000000000002      57.120000000000019
   208   1      12.240000000000016      69.360000000000014      61.200000000000024
   209   1      12.240000000000016       71.40000000000002      63.240000000000023
   210   1      14.280000000000015      69.360000000000014      63.240000000000023
   211   1      14.280000000000015       71.40000000000002      61.200000000000024
   212   1      12.240000000000016      69.360000000000014      65.280000000000015
   213   1      12.240000000000016       71.40000000000002      67.320000000000022
   214   1      14.280000000000015      69.360000000000014      67.320000000000022
   215   1      14.280000000000015       71.40000000000002      65.280000000000015
   216   1      12.240000000000016      69.360000000000014      69.360000000000014
   217   1      12.240000000000016       71.40000000000002       71.40000000000002
   218   1      14.280000000000015      69.360000000000014       71.40000000000002
   219   1      14.280000000000015       71.40000000000002      69.360000000000014
   220   1      12.240000000000016      69.360000000000014      73.440000000000026
   221   1      12.240000000000016       71.40000000000002      75.480000000000018
   222   1      14.280000000000015      69.360000000000014      75.480000000000018
   223   1      14.280000000000015       71.40000000000002      73.440000000000026
   224   1      14.280000000000015       71.40000000000002       77.52000000000001
   225   1      12.240000000000016      75.480000000000018       55.08000000000002
   226   1      14.280000000000015      73.440000000000026       55.08000000000002
   227   1      14.280000000000015      75.480000000000018      53.040000000000028
   228   1      12.240000000000016      73.440000000000026      57.120000000000019
   229   1      12.240000000000016      75.480000000000018      59.160000000000025
   230   1      14.280000000000015      73.440000000000026      59.160000000000025
   231   1      14.280000000000015      75.480000000000018      57.120000000000019
   232   1      12.240000000000016      73.440000000000026      61.200000000000024
   233   1      12.240000000000016      75.480000000000018      63.240000000000023
   234   1      14.280000000000015      73.440000000000026      63.240000000000023
   235   1      14.280000000000015      75.480000000000018      61.200000000000024
   236   1      12.240000000000016      73.440000000000026      65.280000000000015
   237   1      12.240000000000016      75.480000000000018      67.320000000000022
   238   1      14.280000000000015      73.440000000000026      67.320000000000022
   239   1      14.280000000000015      75.480000000000018      65.280000000000015
   240   1      12.240000000000016      73.440000000000026      69.360000000000014
   241   1      12.240000000000016      75.480000000000018       71.40000000000002
   242   1      14.280000000000015      73.440000000000026       71.40000000000002
   243   1      14.280000000000015      75.480000000000018      69.360000000000014
   244   1      12.240000000000016      73.440000000000026      73.440000000000026
   245   1      12.240000000000016      75.480000000000018      75.480000000000018
   246   1      14.280000000000015      73.440000000000026      75.480000000000018
   247   1      14.280000000000015      75.480000000000018      73.440000000000026
   248   1      14.280000000000015      75.480000000000018       77.52000000000001
   249   1      14.280000000000015       77.52000000000001       55.08000000000002
   250   1      14.280000000000015       77.52000000000001      59.160000000000025
   251   1      14.280000000000015       77.52000000000001      63.240000000000023
   252   1      12.240000000000016       77.52000000000001      65.280000000000015
   253   1      14.280000000000015       77.52000000000001      67.320000000000022
   254   1      14.280000000000015      79.560000000000031      65.280000000000015
   255   1      14.280000000000015       77.52000000000001       71.40000000000002
   256   1      14.280000000000015       77.52000000000001      75.480000000000018
   257   1      18.360000000000017      46.920000000000016      65.280000000000015
   258   1      16.320000000000014      51.000000000000014       55.08000000000002
   259   1      18.360000000000017      48.960000000000015       55.08000000000002
   260   1      18.360000000000017      51.000000000000014      53.040000000000028
   261   1      16.320000000000014      51.000000000000014      59.160000000000025
   262   1      18.360000000000017      48.960000000000015      59.160000000000025
   263   1      18.360000000000017      51.000000000000014      57.120000000000019
   264   1      16.320000000000014      51.000000000000014      63.240000000000023
   265   1      18.360000000000017      48.960000000000015      63.240000000000023
   266   1      18.360000000000017      51.000000000000014      61.200000000000024
   267   1      16.320000000000014      48.960000000000015      65.280000000000015
   268   1      16.320000000000014      51.000000000000014      67.320000000000022
   269   1      18.360000000000017      48.960000000000015      67.320000000000022
   270   1      18.360000000000017      51.000000000000014      65.280000000000015
   271   1      16.320000000000014      51.000000000000014       71.40000000000002
   272   1      18.360000000000017      48.960000000000015       71.40000000000002
   273   1      18.360000000000017      51.000000000000014      69.360000000000014
   274   1      16.320000000000014      51.000000000000014      75.480000000000018
   275   1      18.360000000000017      48.960000000000015      75.480000000000018
   276   1      18.360000000000017      51.000000000000014      73.440000000000026
   277   1      18.360000000000017      51.000000000000014       77.52000000000001
   278   1      16.320000000000014       55.08000000000002      51.000000000000014
   279   1      18.360000000000017      53.040000000000028      51.000000000000014
   280   1      18.360000000000017       55.08000000000002      48.960000000000015
   281   1      16.320000000000014      53.040000000000028      53.040000000000028
   282   1      16.320000000000014       55.08000000000002       55.08000000000002
   283   1      18.360000000000017      53.040000000000028       55.08000000000002
   284   1      18.360000000000017       55.08000000000002      53.040000000000028
   285   1      16.320000000000014      53.040000000000028      57.120000000000019
   286   1      16.320000000000014       55.08000000000002      59.160000000000025
   287   1      18.360000000000017      53.040000000000028      59.160000000000025
   288   1      18.360000000000017       55.08000000000002      57.120000000000019
   289   1      16.320000000000014      53.040000000000028      61.200000000000024
   290   1      16.320000000000014       55.08000000000002      63.240000000000023
   291   1      18.360000000000017      53.040000000000028      63.240000000000023
   292   1      18.360000000000017       55.08000000000002      61.200000000000024
   293   1      16.320000000000014      53.040000000000028      65.280000000000015
   294   1      16.320000000000014       55.08000000000002      67.320000000000022
   295   1      18.360000000000017      53.040000000000028      67.320000000000022
   296   1      18.360000000000017       55.08000000000002      65.280000000000015
   297   1      16.320000000000014      53.040000000000028      69.360000000000014
   298   1      16.320000000000014       55.08000000000002       71.40000000000002
   299   1      18.360000000000017      53.040000000000028       71.40000000000002
   300   1      18.360000000000017       55.08000000000002      69.360000000000014
   301   1      16.320000000000014      53.040000000000028      73.440000000000026
   302   1      16.320000000000014       55.08000000000002      75.480000000000018
   303   1      18.360000000000017      53.040000000000028      75.480000000000018
   304   1      18.360000000000017       55.08000000000002      73.440000000000026
   305   1      16.320000000000014      53.040000000000028       77.52000000000001
   306   1      16.320000000000014       55.08000000000002      79.560000000000031
   307   1      18.360000000000017      53.040000000000028      79.560000000000031
   308   1      18.360000000000017       55.08000000000002       77.52000000000001
   309   1      18.360000000000017       55.08000000000002      81.600000000000023
   310   1      16.320000000000014      59.160000000000025      51.000000000000014
   311   1      18.360000000000017      57.120000000000019      51.000000000000014
   312   1      18.360000000000017      59.160000000000025      48.960000000000015
   313   1      16.320000000000014      57.120000000000019      53.040000000000028
   314   1      16.320000000000014      59.160000000000025       55.08000000000002
   315   1      18.360000000000017      57.120000000000019       55.08000000000002
   316   1      18.360000000000017      59.160000000000025      53.040000000000028
   317   1      16.320000000000014      57.120000000000019      57.120000000000019
   318   1      16.320000000000014      59.160000000000025      59.160000000000025
   319   1      18.360000000000017      57.120000000000019      59.160000000000025
   320   1      18.360000000000017      59.160000000000025      57.120000000000019
   321   1      16.320000000000014      57.120000000000019      61.200000000000024
   322   1      16.320000000000014      59.160000000000025      63.240000000000023
   323   1      18.360000000000017      57.120000000000019      63.240000000000023
   324   1      18.360000000000017      59.160000000000025      61.200000000000024
   325   1      16.320000000000014      57.120000000000019      65.280000000000015
   326   1      16.320000000000014      59.160000000000025      67.320000000000022
   327   1      18.360000000000017      57.120000000000019      67.320000000000022
   328   1      18.360000000000017      59.160000000000025      65.280000000000015
   329   1      16.320000000000014      57.120000000000019      69.360000000000014
   330   1      16.320000000000014      59.160000000000025       71.40000000000002
   331   1      18.360000000000017      57.120000000000019       71.40000000000002
   332   1      18.360000000000017      59.160000000000025      69.360000000000014
   333   1      16.320000000000014      57.120000000000019      73.440000000000026
   334   1      16.320000000000014      59.160000000000025      75.480000000000018
   335   1      18.360000000000017      57.120000000000019      75.480000000000018
   336   1      18.360000000000017      59.160000000000025      73.440000000000026
   337   1      16.320000000000014      57.120000000000019       77.52000000000001
   338   1      16.320000000000014      59.160000000000025      79.560000000000031
   339   1      18.360000000000017      57.120000000000019      79.560000000000031
   340   1      18.360000000000017      59.160000000000025       77.52000000000001
   341   1      18.360000000000017      59.160000000000025      81.600000000000023
   342   1      16.320000000000014      63.240000000000023      51.000000000000014
   343   1      18.360000000000017      61.200000000000024      51.000000000000014
   344   1      18.360000000000017      63.240000000000023      48.960000000000015
   345   1      16.320000000000014      61.200000000000024      53.040000000000028
   346   1      16.320000000000014      63.240000000000023       55.08000000000002
   347   1      18.360000000000017      61.200000000000024       55.08000000000002
   348   1      18.360000000000017      63.240000000000023      53.040000000000028
   349   1      16.320000000000014      61.200000000000024      57.120000000000019
   350   1      16.320000000000014      63.240000000000023      59.160000000000025
   351   1      18.360000000000017      61.200000000000024      59.160000000000025
   352   1      18.360000000000017      63.240000000000023      57.120000000000019
   353   1      16.320000000000014      61.200000000000024      61.200000000000024
   354   1      16.320000000000014      63.240000000000023      63.240000000000023
   355   1      18.360000000000017      61.200000000000024      63.240000000000023
   356   1      18.360000000000017      63.240000000000023      61.200000000000024
   357   1      16.320000000000014      61.200000000000024      65.280000000000015
   358   1      16.320000000000014      63.240000000000023      67.320000000000022