LAMMPS data file via write_data, version 30 Nov 2020, timestep = 0

30213 atoms
5 atom types

0 100 xlo xhi
0 100 ylo yhi
0 100 zlo zhi

Masses

1 58.69
2 58.933
3 51.96
4 55.847
5 54.94

Atoms # atomic

2 5 1.7974999999999994 46.73500000000001 48.532500000000006 0 0 0
3 4 1.7974999999999994 48.532500000000006 46.73500000000001 0 0 0
18 5 5.392500000000005 41.3425 46.73500000000001 0 0 0
21 4 5.392500000000005 43.14 44.9375 0 0 0
22 1 5.392500000000005 44.9375 43.14 0 0 0
23 5 3.594999999999999 44.9375 48.532500000000006 0 0 0
24 5 5.392500000000005 43.14 48.532500000000006 0 0 0
25 3 5.392500000000005 44.9375 46.73500000000001 0 0 0
33 3 5.392500000000005 46.73500000000001 41.3425 0 0 0
34 1 3.594999999999999 48.532500000000006 44.9375 0 0 0
35 5 5.392500000000005 46.73500000000001 44.9375 0 0 0
36 2 5.392500000000005 48.532500000000006 43.14 0 0 0
37 4 3.594999999999999 46.73500000000001 46.73500000000001 0 0 0
38 4 3.594999999999999 48.532500000000006 48.532500000000006 0 0 0
39 3 5.392500000000005 46.73500000000001 48.532500000000006 0 0 0
40 2 5.392500000000005 48.532500000000006 46.73500000000001 0 0 0
96 2 8.987500000000004 37.7475 43.14 0 0 0
97 3 7.190000000000005 37.7475 48.532500000000006 0 0 0
98 2 8.987500000000004 35.95 48.532500000000006 0 0 0
99 5 8.987500000000004 37.7475 46.73500000000001 0 0 0
106 4 8.987500000000004 39.545 41.3425 0 0 0
107 4 8.987500000000004 41.3425 39.545 0 0 0
108 1 7.190000000000005 41.3425 44.9375 0 0 0
109 4 8.987500000000004 39.545 44.9375 0 0 0
110 4 8.987500000000004 41.3425 43.14 0 0 0
111 1 7.190000000000005 39.545 46.73500000000001 0 0 0
112 5 7.190000000000005 41.3425 48.532500000000006 0 0 0
113 1 8.987500000000004 39.545 48.532500000000006 0 0 0
114 1 8.987500000000004 41.3425 46.73500000000001 0 0 0
126 3 8.987500000000004 43.14 37.7475 0 0 0
127 5 7.190000000000005 44.9375 41.3425 0 0 0
128 5 8.987500000000004 43.14 41.3425 0 0 0
129 2 8.987500000000004 44.9375 39.545 0 0 0
130 2 7.190000000000005 43.14 43.14 0 0 0
131 4 7.190000000000005 44.9375 44.9375 0 0 0
132 2 8.987500000000004 43.14 44.9375 0 0 0
133 1 8.987500000000004 44.9375 43.14 0 0 0
134 3 7.190000000000005 43.14 46.73500000000001 0 0 0
135 4 7.190000000000005 44.9375 48.532500000000006 0 0 0
136 5 8.987500000000004 43.14 48.532500000000006 0 0 0
137 5 8.987500000000004 44.9375 46.73500000000001 0 0 0
152 2 7.190000000000005 48.532500000000006 37.7475 0 0 0
153 4 8.987500000000004 46.73500000000001 37.7475 0 0 0
154 2 8.987500000000004 48.532500000000006 35.95 0 0 0
155 3 7.190000000000005 46.73500000000001 39.545 0 0 0
156 1 7.190000000000005 48.532500000000006 41.3425 0 0 0
157 1 8.987500000000004 46.73500000000001 41.3425 0 0 0
158 4 8.987500000000004 48.532500000000006 39.545 0 0 0
159 3 7.190000000000005 46.73500000000001 43.14 0 0 0
160 4 7.190000000000005 48.532500000000006 44.9375 0 0 0
161 1 8.987500000000004 46.73500000000001 44.9375 0 0 0
162 4 8.987500000000004 48.532500000000006 43.14 0 0 0
163 5 7.190000000000005 46.73500000000001 46.73500000000001 0 0 0
164 1 7.190000000000005 48.532500000000006 48.532500000000006 0 0 0
165 4 8.987500000000004 46.73500000000001 48.532500000000006 0 0 0
166 3 8.987500000000004 48.532500000000006 46.73500000000001 0 0 0
293 5 12.582500000000001 28.76000000000001 48.532500000000006 0 0 0
294 4 12.582500000000001 30.557500000000005 46.73500000000001 0 0 0
298 1 12.582500000000001 34.1525 39.545 0 0 0
299 4 10.785000000000004 34.1525 44.9375 0 0 0
300 2 12.582500000000001 32.355000000000004 44.9375 0 0 0
301 4 12.582500000000001 34.1525 43.14 0 0 0
302 5 10.785000000000004 32.355000000000004 46.73500000000001 0 0 0
303 5 10.785000000000004 34.1525 48.532500000000006 0 0 0
304 5 12.582500000000001 32.355000000000004 48.532500000000006 0 0 0
305 4 12.582500000000001 34.1525 46.73500000000001 0 0 0
316 3 12.582500000000001 35.95 37.7475 0 0 0
317 3 12.582500000000001 37.7475 35.95 0 0 0
318 4 10.785000000000004 37.7475 41.3425 0 0 0
319 3 12.582500000000001 35.95 41.3425 0 0 0
320 5 12.582500000000001 37.7475 39.545 0 0 0
321 5 10.785000000000004 35.95 43.14 0 0 0
322 2 10.785000000000004 37.7475 44.9375 0 0 0
323 4 12.582500000000001 35.95 44.9375 0 0 0
324 3 12.582500000000001 37.7475 43.14 0 0 0
325 2 10.785000000000004 35.95 46.73500000000001 0 0 0
326 3 10.785000000000004 37.7475 48.532500000000006 0 0 0
327 1 12.582500000000001 35.95 48.532500000000006 0 0 0
328 2 12.582500000000001 37.7475 46.73500000000001 0 0 0
344 1 12.582500000000001 39.545 34.1525 0 0 0
345 2 10.785000000000004 41.3425 37.7475 0 0 0
346 4 12.582500000000001 39.545 37.7475 0 0 0
347 4 12.582500000000001 41.3425 35.95 0 0 0
348 5 10.785000000000004 39.545 39.545 0 0 0
349 5 10.785000000000004 41.3425 41.3425 0 0 0
350 5 12.582500000000001 39.545 41.3425 0 0 0
351 4 12.582500000000001 41.3425 39.545 0 0 0
352 4 10.785000000000004 39.545 43.14 0 0 0
353 5 10.785000000000004 41.3425 44.9375 0 0 0
354 2 12.582500000000001 39.545 44.9375 0 0 0
355 2 12.582500000000001 41.3425 43.14 0 0 0
356 3 10.785000000000004 39.545 46.73500000000001 0 0 0
357 2 10.785000000000004 41.3425 48.532500000000006 0 0 0
358 1 12.582500000000001 39.545 48.532500000000006 0 0 0
359 5 12.582500000000001 41.3425 46.73500000000001 0 0 0
378 1 10.785000000000004 44.9375 34.1525 0 0 0
379 4 12.582500000000001 43.14 34.1525 0 0 0
380 4 12.582500000000001 44.9375 32.355000000000004 0 0 0
381 5 10.785000000000004 43.14 35.95 0 0 0
382 5 10.785000000000004 44.9375 37.7475 0 0 0
383 1 12.582500000000001 43.14 37.7475 0 0 0
384 1 12.582500000000001 44.9375 35.95 0 0 0
385 4 10.785000000000004 43.14 39.545 0 0 0
386 4 10.785000000000004 44.9375 41.3425 0 0 0
387 2 12.582500000000001 43.14 41.3425 0 0 0
388 1 12.582500000000001 44.9375 39.545 0 0 0
389 4 10.785000000000004 43.14 43.14 0 0 0
390 2 10.785000000000004 44.9375 44.9375 0 0 0
391 4 12.582500000000001 43.14 44.9375 0 0 0
392 4 12.582500000000001 44.9375 43.14 0 0 0
393 4 10.785000000000004 43.14 46.73500000000001 0 0 0
394 5 10.785000000000004 44.9375 48.532500000000006 0 0 0
395 4 12.582500000000001 43.14 48.532500000000006 0 0 0
396 1 12.582500000000001 44.9375 46.73500000000001 0 0 0
418 1 12.582500000000001 46.73500000000001 30.557500000000005 0 0 0
419 4 12.582500000000001 48.532500000000006 28.76000000000001 0 0 0
420 5 10.785000000000004 46.73500000000001 32.355000000000004 0 0 0
421 3 10.785000000000004 48.532500000000006 34.1525 0 0 0
422 1 12.582500000000001 46.73500000000001 34.1525 0 0 0
423 1 12.582500000000001 48.532500000000006 32.355000000000004 0 0 0
424 5 10.785000000000004 46.73500000000001 35.95 0 0 0
425 3 10.785000000000004 48.532500000000006 37.7475 0 0 0
426 2 12.582500000000001 46.73500000000001 37.7475 0 0 0
427 5 12.582500000000001 48.532500000000006 35.95 0 0 0
428 2 10.785000000000004 46.73500000000001 39.545 0 0 0
429 2 10.785000000000004 48.532500000000006 41.3425 0 0 0
430 1 12.582500000000001 46.73500000000001 41.3425 0 0 0
431 1 12.582500000000001 48.532500000000006 39.545 0 0 0
432 1 10.785000000000004 46.73500000000001 43.14 0 0 0
433 3 10.785000000000004 48.532500000000006 44.9375 0 0 0
434 2 12.582500000000001 46.73500000000001 44.9375 0 0 0
435 5 12.582500000000001 48.532500000000006 43.14 0 0 0
436 4 10.785000000000004 46.73500000000001 46.73500000000001 0 0 0
437 5 10.785000000000004 48.532500000000006 48.532500000000006 0 0 0
438 3 12.582500000000001 46.73500000000001 48.532500000000006 0 0 0
439 3 12.582500000000001 48.532500000000006 46.73500000000001 0 0 0
661 5 16.177500000000002 23.367500000000003 46.73500000000001 0 0 0
664 1 16.177500000000002 25.165000000000003 44.9375 0 0 0
665 5 16.177500000000002 26.9625 43.14 0 0 0
666 4 14.380000000000004 26.9625 48.532500000000006 0 0 0
667 2 16.177500000000002 25.165000000000003 48.532500000000006 0 0 0
668 2 16.177500000000002 26.9625 46.73500000000001 0 0 0
676 2 16.177500000000002 30.557500000000005 35.95 0 0 0
677 5 14.380000000000004 30.557500000000005 41.3425 0 0 0
678 5 16.177500000000002 28.76000000000001 41.3425 0 0 0
679 1 16.177500000000002 30.557500000000005 39.545 0 0 0
680 4 14.380000000000004 28.76000000000001 43.14 0 0 0
681 2 14.380000000000004 30.557500000000005 44.9375 0 0 0
682 5 16.177500000000002 28.76000000000001 44.9375 0 0 0
683 1 16.177500000000002 30.557500000000005 43.14 0 0 0
684 5 14.380000000000004 28.76000000000001 46.73500000000001 0 0 0
685 2 14.380000000000004 30.557500000000005 48.532500000000006 0 0 0
686 3 16.177500000000002 28.76000000000001 48.532500000000006 0 0 0
687 3 16.177500000000002 30.557500000000005 46.73500000000001 0 0 0
702 3 16.177500000000002 32.355000000000004 34.1525 0 0 0
703 5 16.177500000000002 34.1525 32.355000000000004 0 0 0
704 5 14.380000000000004 34.1525 37.7475 0 0 0
705 5 16.177500000000002 32.355000000000004 37.7475 0 0 0
706 4 16.177500000000002 34.1525 35.95 0 0 0
707 4 14.380000000000004 32.355000000000004 39.545 0 0 0
708 1 14.380000000000004 34.1525 41.3425 0 0 0
709 5 16.177500000000002 32.355000000000004 41.3425 0 0 0
710 1 16.177500000000002 34.1525 39.545 0 0 0
711 2 14.380000000000004 32.355000000000004 43.14 0 0 0
712 1 14.380000000000004 34.1525 44.9375 0 0 0
713 1 16.177500000000002 32.355000000000004 44.9375 0 0 0
714 3 16.177500000000002 34.1525 43.14 0 0 0
715 4 14.380000000000004 32.355000000000004 46.73500000000001 0 0 0
716 2 14.380000000000004 34.1525 48.532500000000006 0 0 0
717 4 16.177500000000002 32.355000000000004 48.532500000000006 0 0 0
718 5 16.177500000000002 34.1525 46.73500000000001 0 0 0
738 1 16.177500000000002 35.95 30.557500000000005 0 0 0
739 2 14.380000000000004 37.7475 34.1525 0 0 0
740 2 16.177500000000002 35.95 34.1525 0 0 0
741 4 16.177500000000002 37.7475 32.355000000000004 0 0 0
742 3 14.380000000000004 35.95 35.95 0 0 0
743 5 14.380000000000004 37.7475 37.7475 0 0 0
744 4 16.177500000000002 35.95 37.7475 0 0 0
745 2 16.177500000000002 37.7475 35.95 0 0 0
746 4 14.380000000000004 35.95 39.545 0 0 0
747 2 14.380000000000004 37.7475 41.3425 0 0 0
748 2 16.177500000000002 35.95 41.3425 0 0 0
749 4 16.177500000000002 37.7475 39.545 0 0 0
750 1 14.380000000000004 35.95 43.14 0 0 0
751 2 14.380000000000004 37.7475 44.9375 0 0 0
752 4 16.177500000000002 35.95 44.9375 0 0 0
753 2 16.177500000000002 37.7475 43.14 0 0 0
754 2 14.380000000000004 35.95 46.73500000000001 0 0 0
755 4 14.380000000000004 37.7475 48.532500000000006 0 0 0
756 3 16.177500000000002 35.95 48.532500000000006 0 0 0
757 2 16.177500000000002 37.7475 46.73500000000001 0 0 0
780 1 14.380000000000004 41.3425 30.557500000000005 0 0 0
781 1 16.177500000000002 39.545 30.557500000000005 0 0 0
782 2 16.177500000000002 41.3425 28.76000000000001 0 0 0
783 5 14.380000000000004 39.545 32.355000000000004 0 0 0
784 4 14.380000000000004 41.3425 34.1525 0 0 0
785 5 16.177500000000002 39.545 34.1525 0 0 0
786 2 16.177500000000002 41.3425 32.355000000000004 0 0 0
787 3 14.380000000000004 39.545 35.95 0 0 0
788 5 14.380000000000004 41.3425 37.7475 0 0 0
789 5 16.177500000000002 39.545 37.7475 0 0 0
790 5 16.177500000000002 41.3425 35.95 0 0 0
791 5 14.380000000000004 39.545 39.545 0 0 0
792 3 14.380000000000004 41.3425 41.3425 0 0 0
793 1 16.177500000000002 39.545 41.3425 0 0 0
794 5 16.177500000000002 41.3425 39.545 0 0 0
795 4 14.380000000000004 39.545 43.14 0 0 0
796 3 14.380000000000004 41.3425 44.9375 0 0 0
797 3 16.177500000000002 39.545 44.9375 0 0 0
798 4 16.177500000000002 41.3425 43.14 0 0 0
799 3 14.380000000000004 39.545 46.73500000000001 0 0 0
800 4 14.380000000000004 41.3425 48.532500000000006 0 0 0
801 5 16.177500000000002 39.545 48.532500000000006 0 0 0
802 5 16.177500000000002 41.3425 46.73500000000001 0 0 0
828 1 16.177500000000002 43.14 26.9625 0 0 0
829 2 16.177500000000002 44.9375 25.165000000000003 0 0 0
830 5 14.380000000000004 43.14 28.76000000000001 0 0 0
831 1 14.380000000000004 44.9375 30.557500000000005 0 0 0
832 1 16.177500000000002 43.14 30.557500000000005 0 0 0
833 5 16.177500000000002 44.9375 28.76000000000001 0 0 0
834 1 14.380000000000004 43.14 32.355000000000004 0 0 0
835 2 14.380000000000004 44.9375 34.1525 0 0 0
836 3 16.177500000000002 43.14 34.1525 0 0 0
837 4 16.177500000000002 44.9375 32.355000000000004 0 0 0
838 2 14.380000000000004 43.14 35.95 0 0 0
839 2 14.380000000000004 44.9375 37.7475 0 0 0
840 1 16.177500000000002 43.14 37.7475 0 0 0
841 1 16.177500000000002 44.9375 35.95 0 0 0
842 1 14.380000000000004 43.14 39.545 0 0 0
843 5 14.380000000000004 44.9375 41.3425 0 0 0
844 5 16.177500000000002 43.14 41.3425 0 0 0
845 4 16.177500000000002 44.9375 39.545 0 0 0
846 3 14.380000000000004 43.14 43.14 0 0 0
847 1 14.380000000000004 44.9375 44.9375 0 0 0
848 3 16.177500000000002 43.14 44.9375 0 0 0
849 5 16.177500000000002 44.9375 43.14 0 0 0
850 4 14.380000000000004 43.14 46.73500000000001 0 0 0
851 2 14.380000000000004 44.9375 48.532500000000006 0 0 0
852 4 16.177500000000002 43.14 48.532500000000006 0 0 0
853 3 16.177500000000002 44.9375 46.73500000000001 0 0 0
882 5 16.177500000000002 46.73500000000001 23.367500000000003 0 0 0
883 5 14.380000000000004 48.532500000000006 26.9625 0 0 0
884 3 16.177500000000002 46.73500000000001 26.9625 0 0 0
885 1 16.177500000000002 48.532500000000006 25.165000000000003 0 0 0
886 1 14.380000000000004 46.73500000000001 28.76000000000001 0 0 0
887 3 14.380000000000004 48.532500000000006 30.557500000000005 0 0 0
888 2 16.177500000000002 46.73500000000001 30.557500000000005 0 0 0
889 3 16.177500000000002 48.532500000000006 28.76000000000001 0 0 0
890 4 14.380000000000004 46.73500000000001 32.355000000000004 0 0 0
891 4 14.380000000000004 48.532500000000006 34.1525 0 0 0
892 1 16.177500000000002 46.73500000000001 34.1525 0 0 0
893 3 16.177500000000002 48.532500000000006 32.355000000000004 0 0 0
894 4 14.380000000000004 46.73500000000001 35.95 0 0 0
895 1 14.380000000000004 48.532500000000006 37.7475 0 0 0
896 4 16.177500000000002 46.73500000000001 37.7475 0 0 0
897 4 16.177500000000002 48.532500000000006 35.95 0 0 0
898 2 14.380000000000004 46.73500000000001 39.545 0 0 0
899 3 14.380000000000004 48.532500000000006 41.3425 0 0 0
900 3 16.177500000000002 46.73500000000001 41.3425 0 0 0
901 1 16.177500000000002 48.532500000000006 39.545 0 0 0
902 5 14.380000000000004 46.73500000000001 43.14 0 0 0
903 2 14.380000000000004 48.532500000000006 44.9375 0 0 0
904 3 16.177500000000002 46.73500000000001 44.9375 0 0 0
905 4 16.177500000000002 48.532500000000006 43.14 0 0 0
906 3 14.380000000000004 46.73500000000001 46.73500000000001 0 0 0
907 1 14.380000000000004 48.532500000000006 48.532500000000006 0 0 0
908 5 16.177500000000002 46.73500000000001 48.532500000000006 0 0 0
909 2 16.177500000000002 48.532500000000006 46.73500000000001 0 0 0
1250 4 19.7725 19.7725 43.14 0 0 0
1251 2 17.975 19.7725 48.532500000000006 0 0 0
1252 4 19.7725 17.975 48.532500000000006 0 0 0
1253 1 19.7725 19.7725 46.73500000000001 0 0 0
1260 2 19.7725 21.570000000000004 41.3425 0 0 0
1261 5 19.7725 23.367500000000003 39.545 0 0 0
1262 5 17.975 23.367500000000003 44.9375 0 0 0
1263 4 19.7725 21.570000000000004 44.9375 0 0 0
1264 2 19.7725 23.367500000000003 43.14 0 0 0
1265 4 17.975 21.570000000000004 46.73500000000001 0 0 0
1266 2 17.975 23.367500000000003 48.532500000000006 0 0 0
1267 1 19.7725 21.570000000000004 48.532500000000006 0 0 0
1268 4 19.7725 23.367500000000003 46.73500000000001 0 0 0
1280 1 19.7725 26.9625 32.355000000000004 0 0 0
1281 5 17.975 26.9625 37.7475 0 0 0
1282 5 19.7725 25.165000000000003 37.7475 0 0 0
1283 1 19.7725 26.9625 35.95 0 0 0
1284 4 17.975 25.165000000000003 39.545 0 0 0
1285 1 17.975 26.9625 41.3425 0 0 0
1286 4 19.7725 25.165000000000003 41.3425 0 0 0
1287 5 19.7725 26.9625 39.545 0 0 0
1288 5 17.975 25.165000000000003 43.14 0 0 0
1289 1 17.975 26.9625 44.9375 0 0 0
1290 1 19.7725 25.165000000000003 44.9375 0 0 0
1291 4 19.7725 26.9625 43.14 0 0 0
1292 1 17.975 25.165000000000003 46.73500000000001 0 0 0
1293 2 17.975 26.9625 48.532500000000006 0 0 0
1294 3 19.7725 25.165000000000003 48.532500000000006 0 0 0
1295 5 19.7725 26.9625 46.73500000000001 0 0 0
1314 5 19.7725 28.76000000000001 30.557500000000005 0 0 0
1315 1 19.7725 30.557500000000005 28.76000000000001 0 0 0
1316 2 17.975 30.557500000000005 34.1525 0 0 0
1317 1 19.7725 28.76000000000001 34.1525 0 0 0
1318 3 19.7725 30.557500000000005 32.355000000000004 0 0 0
1319 2 17.975 28.76000000000001 35.95 0 0 0
1320 1 17.975 30.557500000000005 37.7475 0 0 0
1321 4 19.7725 28.76000000000001 37.7475 0 0 0
1322 2 19.7725 30.557500000000005 35.95 0 0 0
1323 2 17.975 28.76000000000001 39.545 0 0 0
1324 5 17.975 30.557500000000005 41.3425 0 0 0
1325 2 19.7725 28.76000000000001 41.3425 0 0 0
1326 5 19.7725 30.557500000000005 39.545 0 0 0
1327 4 17.975 28.76000000000001 43.14 0 0 0
1328 1 17.975 30.557500000000005 44.9375 0 0 0
1329 3 19.7725 28.76000000000001 44.9375 0 0 0
1330 3 19.7725 30.557500000000005 43.14 0 0 0
1331 4 17.975 28.76000000000001 46.73500000000001 0 0 0
1332 3 17.975 30.557500000000005 48.532500000000006 0 0 0
1333 4 19.7725 28.76000000000001 48.532500000000006 0 0 0
1334 4 19.7725 30.557500000000005 46.73500000000001 0 0 0
1358 5 19.7725 32.355000000000004 26.9625 0 0 0
1359 1 17.975 34.1525 30.557500000000005 0 0 0
1360 2 19.7725 32.355000000000004 30.557500000000005 0 0 0
1361 5 19.7725 34.1525 28.76000000000001 0 0 0
1362 1 17.975 32.355000000000004 32.355000000000004 0 0 0
1363 1 17.975 34.1525 34.1525 0 0 0
1364 3 19.7725 32.355000000000004 34.1525 0 0 0
1365 2 19.7725 34.1525 32.355000000000004 0 0 0
1366 2 17.975 32.355000000000004 35.95 0 0 0
1367 5 17.975 34.1525 37.7475 0 0 0
1368 3 19.7725 32.355000000000004 37.7475 0 0 0
1369 3 19.7725 34.1525 35.95 0 0 0
1370 1 17.975 32.355000000000004 39.545 0 0 0
1371 5 17.975 34.1525 41.3425 0 0 0
1372 2 19.7725 32.355000000000004 41.3425 0 0 0
1373 1 19.7725 34.1525 39.545 0 0 0
1374 5 17.975 32.355000000000004 43.14 0 0 0
1375 1 17.975 34.1525 44.9375 0 0 0
1376 4 19.7725 32.355000000000004 44.9375 0 0 0
1377 2 19.7725 34.1525 43.14 0 0 0
1378 5 17.975 32.355000000000004 46.73500000000001 0 0 0
1379 5 17.975 34.1525 48.532500000000006 0 0 0
1380 1 19.7725 32.355000000000004 48.532500000000006 0 0 0
1381 5 19.7725 34.1525 46.73500000000001 0 0 0
1408 3 17.975 37.7475 26.9625 0 0 0
1409 1 19.7725 35.95 26.9625 0 0 0
1410 4 19.7725 37.7475 25.165000000000003 0 0 0
1411 4 17.975 35.95 28.76000000000001 0 0 0
1412 5 17.975 37.7475 30.557500000000005 0 0 0
1413 4 19.7725 35.95 30.557500000000005 0 0 0
1414 3 19.7725 37.7475 28.76000000000001 0 0 0
1415 1 17.975 35.95 32.355000000000004 0 0 0
1416 2 17.975 37.7475 34.1525 0 0 0
1417 5 19.7725 35.95 34.1525 0 0 0
1418 2 19.7725 37.7475 32.355000000000004 0 0 0
1419 2 17.975 35.95 35.95 0 0 0
1420 3 17.975 37.7475 37.7475 0 0 0
1421 2 19.7725 35.95 37.7475 0 0 0
1422 2 19.7725 37.7475 35.95 0 0 0
1423 3 17.975 35.95 39.545 0 0 0
1424 2 17.975 37.7475 41.3425 0 0 0
1425 2 19.7725 35.95 41.3425 0 0 0
1426 3 19.7725 37.7475 39.545 0 0 0
1427 4 17.975 35.95 43.14 0 0 0
1428 2 17.975 37.7475 44.9375 0 0 0
1429 4 19.7725 35.95 44.9375 0 0 0
1430 4 19.7725 37.7475 43.14 0 0 0
1431 2 17.975 35.95 46.73500000000001 0 0 0
1432 4 17.975 37.7475 48.532500000000006 0 0 0
1433 5 19.7725 35.95 48.532500000000006 0 0 0
1434 3 19.7725 37.7475 46.73500000000001 0 0 0
1464 2 19.7725 39.545 23.367500000000003 0 0 0
1465 1 19.7725 41.3425 21.570000000000004 0 0 0
1466 1 17.975 39.545 25.165000000000003 0 0 0
1467 2 17.975 41.3425 26.9625 0 0 0
1468 1 19.7725 39.545 26.9625 0 0 0
1469 4 19.7725 41.3425 25.165000000000003 0 0 0
1470 3 17.975 39.545 28.76000000000001 0 0 0
1471 4 17.975 41.3425 30.557500000000005 0 0 0
1472 2 19.7725 39.545 30.557500000000005 0 0 0
1473 2 19.7725 41.3425 28.76000000000001 0 0 0
1474 5 17.975 39.545 32.355000000000004 0 0 0
1475 5 17.975 41.3425 34.1525 0 0 0
1476 1 19.7725 39.545 34.1525 0 0 0
1477 3 19.7725 41.3425 32.355000000000004 0 0 0
1478 4 17.975 39.545 35.95 0 0 0
1479 1 17.975 41.3425 37.7475 0 0 0
1480 3 19.7725 39.545 37.7475 0 0 0
1481 4 19.7725 41.3425 35.95 0 0 0
1482 1 17.975 39.545 39.545 0 0 0
1483 5 17.975 41.3425 41.3425 0 0 0
1484 3 19.7725 39.545 41.3425 0 0 0
1485 2 19.7725 41.3425 39.545 0 0 0
1486 4 17.975 39.545 43.14 0 0 0
1487 5 17.975 41.3425 44.9375 0 0 0
1488 5 19.7725 39.545 44.9375 0 0 0
1489 4 19.7725 41.3425 43.14 0 0 0
1490 2 17.975 39.545 46.73500000000001 0 0 0
1491 5 17.975 41.3425 48.532500000000006 0 0 0
1492 2 19.7725 39.545 48.532500000000006 0 0 0
1493 1 19.7725 41.3425 46.73500000000001 0 0 0
1526 2 19.7725 43.14 19.7725 0 0 0
1527 5 17.975 44.9375 23.367500000000003 0 0 0
1528 1 19.7725 43.14 23.367500000000003 0 0 0
1529 3 19.7725 44.9375 21.570000000000004 0 0 0
1530 1 17.975 43.14 25.165000000000003 0 0 0
1531 2 17.975 44.9375 26.9625 0 0 0
1532 4 19.7725 43.14 26.9625 0 0 0
1533 3 19.7725 44.9375 25.165000000000003 0 0 0
1534 4 17.975 43.14 28.76000000000001 0 0 0
1535 1 17.975 44.9375 30.557500000000005 0 0 0
1536 4 19.7725 43.14 30.557500000000005 0 0 0
1537 2 19.7725 44.9375 28.76000000000001 0 0 0
1538 5 17.975 43.14 32.355000000000004 0 0 0
1539 2 17.975 44.9375 34.1525 0 0 0
1540 4 19.7725 43.14 34.1525 0 0 0
1541 5 19.7725 44.9375 32.355000000000004 0 0 0
1542 1 17.975 43.14 35.95 0 0 0
1543 5 17.975 44.9375 37.7475 0 0 0
1544 3 19.7725 43.14 37.7475 0 0 0
1545 2 19.7725 44.9375 35.95 0 0 0
1546 3 17.975 43.14 39.545 0 0 0
1547 5 17.975 44.9375 41.3425 0 0 0
1548 4 19.7725 43.14 41.3425 0 0 0
1549 1 19.7725 44.9375 39.545 0 0 0
1550 3 17.975 43.14 43.14 0 0 0
1551 3 17.975 44.9375 44.9375 0 0 0
1552 2 19.7725 43.14 44.9375 0 0 0
1553 1 19.7725 44.9375 43.14 0 0 0
1554 5 17.975 43.14 46.73500000000001 0 0 0
1555 1 17.975 44.9375 48.532500000000006 0 0 0
1556 2 19.7725 43.14 48.532500000000006 0 0 0
1557 1 19.7725 44.9375 46.73500000000001 0 0 0
1592 4 17.975 48.532500000000006 19.7725 0 0 0
1593 4 19.7725 46.73500000000001 19.7725 0 0 0
1594 4 19.7725 48.532500000000006 17.975 0 0 0
1595 3 17.975 46.73500000000001 21.570000000000004 0 0 0
1596 4 17.975 48.532500000000006 23.367500000000003 0 0 0
1597 2 19.7725 46.73500000000001 23.367500000000003 0 0 0
1598 4 19.7725 48.532500000000006 21.570000000000004 0 0 0
1599 5 17.975 46.73500000000001 25.165000000000003 0 0 0
1600 5 17.975 48.532500000000006 26.9625 0 0 0
1601 1 19.7725 46.73500000000001 26.9625 0 0 0
1602 2 19.7725 48.532500000000006 25.165000000000003 0 0 0
1603 1 17.975 46.73500000000001 28.76000000000001 0 0 0
1604 3 17.975 48.532500000000006 30.557500000000005 0 0 0
1605 3 19.7725 46.73500000000001 30.557500000000005 0 0 0
1606 3 19.7725 48.532500000000006 28.76000000000001 0 0 0
1607 1 17.975 46.73500000000001 32.355000000000004 0 0 0
1608 1 17.975 48.532500000000006 34.1525 0 0 0
1609 4 19.7725 46.73500000000001 34.1525 0 0 0
1610 4 19.7725 48.532500000000006 32.355000000000004 0 0 0
1611 4 17.975 46.73500000000001 35.95 0 0 0
1612 1 17.975 48.532500000000006 37.7475 0 0 0
1613 3 19.7725 46.73500000000001 37.7475 0 0 0
1614 3 19.7725 48.532500000000006 35.95 0 0 0
1615 3 17.975 46.73500000000001 39.545 0 0 0
1616 3 17.975 48.532500000000006 41.3425 0 0 0
1617 4 19.7725 46.73500000000001 41.3425 0 0 0
1618 2 19.7725 48.532500000000006 39.545 0 0 0
1619 5 17.975 46.73500000000001 43.14 0 0 0
1620 1 17.975 48.532500000000006 44.9375 0 0 0
1621 1 19.7725 46.73500000000001 44.9375 0 0 0
1622 1 19.7725 48.532500000000006 43.14 0 0 0
1623 1 17.975 46.73500000000001 46.73500000000001 0 0 0
1624 1 17.975 48.532500000000006 48.532500000000006 0 0 0
1625 2 19.7725 46.73500000000001 48.532500000000006 0 0 0
1626 4 19.7725 48.532500000000006 46.73500000000001 0 0 0
2115 3 23.367500000000003 16.177500000000002 46.73500000000001 0 0 0
2118 3 21.570000000000004 19.7725 41.3425 0 0 0
2119 3 23.367500000000003 19.7725 39.545 0 0 0
2120 4 21.570000000000004 19.7725 44.9375 0 0 0
2121 4 23.367500000000003 17.975 44.9375 0 0 0
2122 1 23.367500000000003 19.7725 43.14 0 0 0
2123 5 21.570000000000004 17.975 46.73500000000001 0 0 0
2124 3 21.570000000000004 19.7725 48.532500000000006 0 0 0
2125 5 23.367500000000003 17.975 48.532500000000006 0 0 0
2126 2 23.367500000000003 19.7725 46.73500000000001 0 0 0
2138 3 23.367500000000003 23.367500000000003 28.76000000000001 0 0 0
2139 4 21.570000000000004 23.367500000000003 34.1525 0 0 0
2140 4 23.367500000000003 21.570000000000004 34.1525 0 0 0
2141 2 23.367500000000003 23.367500000000003 32.355000000000004 0 0 0
2142 1 21.570000000000004 21.570000000000004 35.95 0 0 0
2143 2 21.570000000000004 23.367500000000003 37.7475 0 0 0
2144 2 23.367500000000003 21.570000000000004 37.7475 0 0 0
2145 1 23.367500000000003 23.367500000000003 35.95 0 0 0
2146 4 21.570000000000004 21.570000000000004 39.545 0 0 0
2147 2 21.570000000000004 23.367500000000003 41.3425 0 0 0
2148 5 23.367500000000003 21.570000000000004 41.3425 0 0 0
2149 5 23.367500000000003 23.367500000000003 39.545 0 0 0
2150 5 21.570000000000004 21.570000000000004 43.14 0 0 0
2151 1 21.570000000000004 23.367500000000003 44.9375 0 0 0
2152 4 23.367500000000003 21.570000000000004 44.9375 0 0 0
2153 3 23.367500000000003 23.367500000000003 43.14 0 0 0
2154 5 21.570000000000004 21.570000000000004 46.73500000000001 0 0 0
2155 3 21.570000000000004 23.367500000000003 48.532500000000006 0 0 0
2156 3 23.367500000000003 21.570000000000004 48.532500000000006 0 0 0
2157 1 23.367500000000003 23.367500000000003 46.73500000000001 0 0 0
2180 1 23.367500000000003 25.165000000000003 26.9625 0 0 0
2181 3 23.367500000000003 26.9625 25.165000000000003 0 0 0
2182 4 21.570000000000004 26.9625 30.557500000000005 0 0 0
2183 1 23.367500000000003 25.165000000000003 30.557500000000005 0 0 0
2184 1 23.367500000000003 26.9625 28.76000000000001 0 0 0
2185 2 21.570000000000004 25.165000000000003 32.355000000000004 0 0 0
2186 1 21.570000000000004 26.9625 34.1525 0 0 0
2187 5 23.367500000000003 25.165000000000003 34.1525 0 0 0
2188 4 23.367500000000003 26.9625 32.355000000000004 0 0 0
2189 5 21.570000000000004 25.165000000000003 35.95 0 0 0
2190 3 21.570000000000004 26.9625 37.7475 0 0 0
2191 4 23.367500000000003 25.165000000000003 37.7475 0 0 0
2192 5 23.367500000000003 26.9625 35.95 0 0 0
2193 4 21.570000000000004 25.165000000000003 39.545 0 0 0
2194 5 21.570000000000004 26.9625 41.3425 0 0 0
2195 2 23.367500000000003 25.165000000000003 41.3425 0 0 0
2196 1 23.367500000000003 26.9625 39.545 0 0 0
2197 1 21.570000000000004 25.165000000000003 43.14 0 0 0
2198 3 21.570000000000004 26.9625 44.9375 0 0 0
2199 5 23.367500000000003 25.165000000000003 44.9375 0 0 0
2200 3 23.367500000000003 26.9625 43.14 0 0 0
2201 3 21.570000000000004 25.165000000000003 46.73500000000001 0 0 0
2202 5 21.570000000000004 26.9625 48.532500000000006 0 0 0
2203 2 23.367500000000003 25.165000000000003 48.532500000000006 0 0 0
2204 5 23.367500000000003 26.9625 46.73500000000001 0 0 0
2232 2 23.367500000000003 28.76000000000001 23.367500000000003 0 0 0
2233 4 21.570000000000004 30.557500000000005 26.9625 0 0 0
2234 5 23.367500000000003 28.76000000000001 26.9625 0 0 0
2235 5 23.367500000000003 30.557500000000005 25.165000000000003 0 0 0
2236 4 21.570000000000004 28.76000000000001 28.76000000000001 0 0 0
2237 2 21.570000000000004 30.557500000000005 30.557500000000005 0 0 0
2238 3 23.367500000000003 28.76000000000001 30.557500000000005 0 0 0
2239 1 23.367500000000003 30.557500000000005 28.76000000000001 0 0 0
2240 1 21.570000000000004 28.76000000000001 32.355000000000004 0 0 0
2241 5 21.570000000000004 30.557500000000005 34.1525 0 0 0
2242 1 23.367500000000003 28.76000000000001 34.1525 0 0 0
2243 2 23.367500000000003 30.557500000000005 32.355000000000004 0 0 0
2244 3 21.570000000000004 28.76000000000001 35.95 0 0 0
2245 1 21.570000000000004 30.557500000000005 37.7475 0 0 0
2246 1 23.367500000000003 28.76000000000001 37.7475 0 0 0
2247 1 23.367500000000003 30.557500000000005 35.95 0 0 0
2248 3 21.570000000000004 28.76000000000001 39.545 0 0 0
2249 4 21.570000000000004 30.557500000000005 41.3425 0 0 0
2250 4 23.367500000000003 28.76000000000001 41.3425 0 0 0
2251 3 23.367500000000003 30.557500000000005 39.545 0 0 0
2252 5 21.570000000000004 28.76000000000001 43.14 0 0 0
2253 5 21.570000000000004 30.557500000000005 44.9375 0 0 0
2254 4 23.367500000000003 28.76000000000001 44.9375 0 0 0
2255 4 23.367500000000003 30.557500000000005 43.14 0 0 0
2256 1 21.570000000000004 28.76000000000001 46.73500000000001 0 0 0
2257 5 21.570000000000004 30.557500000000005 48.532500000000006 0 0 0
2258 4 23.367500000000003 28.76000000000001 48.532500000000006 0 0 0
2259 2 23.367500000000003 30.557500000000005 46.73500000000001 0 0 0
2290 3 21.570000000000004 34.1525 23.367500000000003 0 0 0
2291 4 23.367500000000003 32.355000000000004 23.367500000000003 0 0 0
2292 2 23.367500000000003 34.1525 21.570000000000004 0 0 0
2293 1 21.570000000000004 32.355000000000004 25.165000000000003 0 0 0
2294 4 21.570000000000004 34.1525 26.9625 0 0 0
2295 2 23.367500000000003 32.355000000000004 26.9625 0 0 0
2296 2 23.367500000000003 34.1525 25.165000000000003 0 0 0
2297 5 21.570000000000004 32.355000000000004 28.76000000000001 0 0 0
2298 5 21.570000000000004 34.1525 30.557500000000005 0 0 0
2299 1 23.367500000000003 32.355000000000004 30.557500000000005 0 0 0
2300 2 23.367500000000003 34.1525 28.76000000000001 0 0 0
2301 5 21.570000000000004 32.355000000000004 32.355000000000004 0 0 0
2302 5 21.570000000000004 34.1525 34.1525 0 0 0
2303 1 23.367500000000003 32.355000000000004 34.1525 0 0 0
2304 1 23.367500000000003 34.1525 32.355000000000004 0 0 0
2305 5 21.570000000000004 32.355000000000004 35.95 0 0 0
2306 2 21.570000000000004 34.1525 37.7475 0 0 0
2307 1 23.367500000000003 32.355000000000004 37.7475 0 0 0
2308 3 23.367500000000003 34.1525 35.95 0 0 0
2309 4 21.570000000000004 32.355000000000004 39.545 0 0 0
2310 1 21.570000000000004 34.1525 41.3425 0 0 0
2311 4 23.367500000000003 32.355000000000004 41.3425 0 0 0
2312 5 23.367500000000003 34.1525 39.545 0 0 0
2313 2 21.570000000000004 32.355000000000004 43.14 0 0 0
2314 2 21.570000000000004 34.1525 44.9375 0 0 0