model_files/NiCoCrFeMn/NiCoCrFeMn_30000/NiCoCrFeMn_532/NiCoCrFeMn_532_fcc_30213_temp.data (written by ASE) 

30213 	 atoms 
5  atom types
0.0                     100  xlo xhi
0.0                     100  ylo yhi
0.0                     100  zlo zhi


Atoms 

     1   1      1.7974999999999994                 44.9375      50.330000000000005
     2   1      1.7974999999999994      46.735000000000007      48.532500000000006
     3   1      1.7974999999999994      48.532500000000006      46.735000000000007
     4   1      1.7974999999999994      46.735000000000007      52.127500000000005
     5   1      1.7974999999999994      48.532500000000006      50.330000000000005
     6   1      1.7974999999999994      48.532500000000006      53.924999999999997
     7   1      1.7974999999999994      50.330000000000005                 44.9375
     8   1      1.7974999999999994      50.330000000000005      48.532500000000006
     9   1      1.7974999999999994      52.127500000000005      46.735000000000007
    10   1                       0      50.330000000000005      50.330000000000005
    11   1      1.7974999999999994      50.330000000000005      52.127500000000005
    12   1      1.7974999999999994      52.127500000000005      50.330000000000005
    13   1      1.7974999999999994      50.330000000000005      55.722500000000011
    14   1      1.7974999999999994      52.127500000000005      53.924999999999997
    15   1      1.7974999999999994      53.924999999999997      48.532500000000006
    16   1      1.7974999999999994      53.924999999999997      52.127500000000005
    17   1      1.7974999999999994      55.722500000000011      50.330000000000005
    18   1      5.3925000000000054      41.342500000000001      46.735000000000007
    19   1      5.3925000000000054      41.342500000000001      50.330000000000005
    20   1      5.3925000000000054      41.342500000000001      53.924999999999997
    21   1      5.3925000000000054      43.140000000000001                 44.9375
    22   1      5.3925000000000054                 44.9375      43.140000000000001
    23   1      3.5949999999999989                 44.9375      48.532500000000006
    24   1      5.3925000000000054      43.140000000000001      48.532500000000006
    25   1      5.3925000000000054                 44.9375      46.735000000000007
    26   1      3.5949999999999989      43.140000000000001      50.330000000000005
    27   1      3.5949999999999989                 44.9375      52.127500000000005
    28   1      5.3925000000000054      43.140000000000001      52.127500000000005
    29   1      5.3925000000000054                 44.9375      50.330000000000005
    30   1      5.3925000000000054      43.140000000000001      55.722500000000011
    31   1      5.3925000000000054                 44.9375      53.924999999999997
    32   1      5.3925000000000054                 44.9375      57.520000000000003
    33   1      5.3925000000000054      46.735000000000007      41.342500000000001
    34   1      3.5949999999999989      48.532500000000006                 44.9375
    35   1      5.3925000000000054      46.735000000000007                 44.9375
    36   1      5.3925000000000054      48.532500000000006      43.140000000000001
    37   1      3.5949999999999989      46.735000000000007      46.735000000000007
    38   1      3.5949999999999989      48.532500000000006      48.532500000000006
    39   1      5.3925000000000054      46.735000000000007      48.532500000000006
    40   1      5.3925000000000054      48.532500000000006      46.735000000000007
    41   1      3.5949999999999989      46.735000000000007      50.330000000000005
    42   1      3.5949999999999989      48.532500000000006      52.127500000000005
    43   1      5.3925000000000054      46.735000000000007      52.127500000000005
    44   1      5.3925000000000054      48.532500000000006      50.330000000000005
    45   1      3.5949999999999989      46.735000000000007      53.924999999999997
    46   1      3.5949999999999989      48.532500000000006      55.722500000000011
    47   1      5.3925000000000054      46.735000000000007      55.722500000000011
    48   1      5.3925000000000054      48.532500000000006      53.924999999999997
    49   1      5.3925000000000054      46.735000000000007      59.317500000000003
    50   1      5.3925000000000054      48.532500000000006      57.520000000000003
    51   1      5.3925000000000054      50.330000000000005      41.342500000000001
    52   1      3.5949999999999989      50.330000000000005      43.140000000000001
    53   1      3.5949999999999989      52.127500000000005                 44.9375
    54   1      5.3925000000000054      50.330000000000005                 44.9375
    55   1      5.3925000000000054      52.127500000000005      43.140000000000001
    56   1      3.5949999999999989      50.330000000000005      46.735000000000007
    57   1      3.5949999999999989      52.127500000000005      48.532500000000006
    58   1      5.3925000000000054      50.330000000000005      48.532500000000006
    59   1      5.3925000000000054      52.127500000000005      46.735000000000007
    60   1      3.5949999999999989      50.330000000000005      50.330000000000005
    61   1      3.5949999999999989      52.127500000000005      52.127500000000005
    62   1      5.3925000000000054      50.330000000000005      52.127500000000005
    63   1      5.3925000000000054      52.127500000000005      50.330000000000005
    64   1      3.5949999999999989      50.330000000000005      53.924999999999997
    65   1      3.5949999999999989      52.127500000000005      55.722500000000011
    66   1      5.3925000000000054      50.330000000000005      55.722500000000011
    67   1      5.3925000000000054      52.127500000000005      53.924999999999997
    68   1      3.5949999999999989      50.330000000000005      57.520000000000003
    69   1      5.3925000000000054      50.330000000000005      59.317500000000003
    70   1      5.3925000000000054      52.127500000000005      57.520000000000003
    71   1      5.3925000000000054      53.924999999999997      41.342500000000001
    72   1      5.3925000000000054      53.924999999999997                 44.9375
    73   1      5.3925000000000054      55.722500000000011      43.140000000000001
    74   1      3.5949999999999989      53.924999999999997      46.735000000000007
    75   1      3.5949999999999989      55.722500000000011      48.532500000000006
    76   1      5.3925000000000054      53.924999999999997      48.532500000000006
    77   1      5.3925000000000054      55.722500000000011      46.735000000000007
    78   1      3.5949999999999989      53.924999999999997      50.330000000000005
    79   1      3.5949999999999989      55.722500000000011      52.127500000000005
    80   1      5.3925000000000054      53.924999999999997      52.127500000000005
    81   1      5.3925000000000054      55.722500000000011      50.330000000000005
    82   1      3.5949999999999989      53.924999999999997      53.924999999999997
    83   1      5.3925000000000054      53.924999999999997      55.722500000000011
    84   1      5.3925000000000054      55.722500000000011      53.924999999999997
    85   1      5.3925000000000054      53.924999999999997      59.317500000000003
    86   1      5.3925000000000054      55.722500000000011      57.520000000000003
    87   1      5.3925000000000054      57.520000000000003                 44.9375
    88   1      5.3925000000000054      57.520000000000003      48.532500000000006
    89   1      5.3925000000000054      59.317500000000003      46.735000000000007
    90   1      3.5949999999999989      57.520000000000003      50.330000000000005
    91   1      5.3925000000000054      57.520000000000003      52.127500000000005
    92   1      5.3925000000000054      59.317500000000003      50.330000000000005
    93   1      5.3925000000000054      57.520000000000003      55.722500000000011
    94   1      5.3925000000000054      59.317500000000003      53.924999999999997
    95   1      8.9875000000000043      34.152500000000003      50.330000000000005
    96   1      8.9875000000000043      37.747500000000002      43.140000000000001
    97   1      7.1900000000000048      37.747500000000002      48.532500000000006
    98   1      8.9875000000000043      35.950000000000003      48.532500000000006
    99   1      8.9875000000000043      37.747500000000002      46.735000000000007
   100   1      7.1900000000000048      35.950000000000003      50.330000000000005
   101   1      7.1900000000000048      37.747500000000002      52.127500000000005
   102   1      8.9875000000000043      35.950000000000003      52.127500000000005
   103   1      8.9875000000000043      37.747500000000002      50.330000000000005
   104   1      8.9875000000000043      37.747500000000002      53.924999999999997
   105   1      8.9875000000000043      37.747500000000002      57.520000000000003
   106   1      8.9875000000000043      39.545000000000002      41.342500000000001
   107   1      8.9875000000000043      41.342500000000001      39.545000000000002
   108   1      7.1900000000000048      41.342500000000001                 44.9375
   109   1      8.9875000000000043      39.545000000000002                 44.9375
   110   1      8.9875000000000043      41.342500000000001      43.140000000000001
   111   1      7.1900000000000048      39.545000000000002      46.735000000000007
   112   1      7.1900000000000048      41.342500000000001      48.532500000000006
   113   1      8.9875000000000043      39.545000000000002      48.532500000000006
   114   1      8.9875000000000043      41.342500000000001      46.735000000000007
   115   1      7.1900000000000048      39.545000000000002      50.330000000000005
   116   1      7.1900000000000048      41.342500000000001      52.127500000000005
   117   1      8.9875000000000043      39.545000000000002      52.127500000000005
   118   1      8.9875000000000043      41.342500000000001      50.330000000000005
   119   1      7.1900000000000048      39.545000000000002      53.924999999999997
   120   1      7.1900000000000048      41.342500000000001      55.722500000000011
   121   1      8.9875000000000043      39.545000000000002      55.722500000000011
   122   1      8.9875000000000043      41.342500000000001      53.924999999999997
   123   1      8.9875000000000043      39.545000000000002      59.317500000000003
   124   1      8.9875000000000043      41.342500000000001      57.520000000000003
   125   1      8.9875000000000043      41.342500000000001      61.115000000000009
   126   1      8.9875000000000043      43.140000000000001      37.747500000000002
   127   1      7.1900000000000048                 44.9375      41.342500000000001
   128   1      8.9875000000000043      43.140000000000001      41.342500000000001
   129   1      8.9875000000000043                 44.9375      39.545000000000002
   130   1      7.1900000000000048      43.140000000000001      43.140000000000001
   131   1      7.1900000000000048                 44.9375                 44.9375
   132   1      8.9875000000000043      43.140000000000001                 44.9375
   133   1      8.9875000000000043                 44.9375      43.140000000000001
   134   1      7.1900000000000048      43.140000000000001      46.735000000000007
   135   1      7.1900000000000048                 44.9375      48.532500000000006
   136   1      8.9875000000000043      43.140000000000001      48.532500000000006
   137   1      8.9875000000000043                 44.9375      46.735000000000007
   138   1      7.1900000000000048      43.140000000000001      50.330000000000005
   139   1      7.1900000000000048                 44.9375      52.127500000000005
   140   1      8.9875000000000043      43.140000000000001      52.127500000000005
   141   1      8.9875000000000043                 44.9375      50.330000000000005
   142   1      7.1900000000000048      43.140000000000001      53.924999999999997
   143   1      7.1900000000000048                 44.9375      55.722500000000011
   144   1      8.9875000000000043      43.140000000000001      55.722500000000011
   145   1      8.9875000000000043                 44.9375      53.924999999999997
   146   1      7.1900000000000048      43.140000000000001      57.520000000000003
   147   1      7.1900000000000048                 44.9375      59.317500000000003
   148   1      8.9875000000000043      43.140000000000001      59.317500000000003
   149   1      8.9875000000000043                 44.9375      57.520000000000003
   150   1      8.9875000000000043      43.140000000000001      62.912500000000001
   151   1      8.9875000000000043                 44.9375      61.115000000000009
   152   1      7.1900000000000048      48.532500000000006      37.747500000000002
   153   1      8.9875000000000043      46.735000000000007      37.747500000000002
   154   1      8.9875000000000043      48.532500000000006      35.950000000000003
   155   1      7.1900000000000048      46.735000000000007      39.545000000000002
   156   1      7.1900000000000048      48.532500000000006      41.342500000000001
   157   1      8.9875000000000043      46.735000000000007      41.342500000000001
   158   1      8.9875000000000043      48.532500000000006      39.545000000000002
   159   1      7.1900000000000048      46.735000000000007      43.140000000000001
   160   1      7.1900000000000048      48.532500000000006                 44.9375
   161   1      8.9875000000000043      46.735000000000007                 44.9375
   162   1      8.9875000000000043      48.532500000000006      43.140000000000001
   163   1      7.1900000000000048      46.735000000000007      46.735000000000007
   164   1      7.1900000000000048      48.532500000000006      48.532500000000006
   165   1      8.9875000000000043      46.735000000000007      48.532500000000006
   166   1      8.9875000000000043      48.532500000000006      46.735000000000007
   167   1      7.1900000000000048      46.735000000000007      50.330000000000005
   168   1      7.1900000000000048      48.532500000000006      52.127500000000005
   169   1      8.9875000000000043      46.735000000000007      52.127500000000005
   170   1      8.9875000000000043      48.532500000000006      50.330000000000005
   171   1      7.1900000000000048      46.735000000000007      53.924999999999997
   172   1      7.1900000000000048      48.532500000000006      55.722500000000011
   173   1      8.9875000000000043      46.735000000000007      55.722500000000011
   174   1      8.9875000000000043      48.532500000000006      53.924999999999997
   175   1      7.1900000000000048      46.735000000000007      57.520000000000003
   176   1      7.1900000000000048      48.532500000000006      59.317500000000003
   177   1      8.9875000000000043      46.735000000000007      59.317500000000003
   178   1      8.9875000000000043      48.532500000000006      57.520000000000003
   179   1      7.1900000000000048      46.735000000000007      61.115000000000009
   180   1      7.1900000000000048      48.532500000000006      62.912500000000001
   181   1      8.9875000000000043      46.735000000000007      62.912500000000001
   182   1      8.9875000000000043      48.532500000000006      61.115000000000009
   183   1      8.9875000000000043      48.532500000000006      64.710000000000008
   184   1      8.9875000000000043      50.330000000000005      34.152500000000003
   185   1      7.1900000000000048      50.330000000000005      35.950000000000003
   186   1      7.1900000000000048      52.127500000000005      37.747500000000002
   187   1      8.9875000000000043      50.330000000000005      37.747500000000002
   188   1      8.9875000000000043      52.127500000000005      35.950000000000003
   189   1      7.1900000000000048      50.330000000000005      39.545000000000002
   190   1      7.1900000000000048      52.127500000000005      41.342500000000001
   191   1      8.9875000000000043      50.330000000000005      41.342500000000001
   192   1      8.9875000000000043      52.127500000000005      39.545000000000002
   193   1      7.1900000000000048      50.330000000000005      43.140000000000001
   194   1      7.1900000000000048      52.127500000000005                 44.9375
   195   1      8.9875000000000043      50.330000000000005                 44.9375
   196   1      8.9875000000000043      52.127500000000005      43.140000000000001
   197   1      7.1900000000000048      50.330000000000005      46.735000000000007
   198   1      7.1900000000000048      52.127500000000005      48.532500000000006
   199   1      8.9875000000000043      50.330000000000005      48.532500000000006
   200   1      8.9875000000000043      52.127500000000005      46.735000000000007
   201   1      7.1900000000000048      50.330000000000005      50.330000000000005
   202   1      7.1900000000000048      52.127500000000005      52.127500000000005
   203   1      8.9875000000000043      50.330000000000005      52.127500000000005
   204   1      8.9875000000000043      52.127500000000005      50.330000000000005
   205   1      7.1900000000000048      50.330000000000005      53.924999999999997
   206   1      7.1900000000000048      52.127500000000005      55.722500000000011
   207   1      8.9875000000000043      50.330000000000005      55.722500000000011
   208   1      8.9875000000000043      52.127500000000005      53.924999999999997
   209   1      7.1900000000000048      50.330000000000005      57.520000000000003
   210   1      7.1900000000000048      52.127500000000005      59.317500000000003
   211   1      8.9875000000000043      50.330000000000005      59.317500000000003
   212   1      8.9875000000000043      52.127500000000005      57.520000000000003
   213   1      7.1900000000000048      50.330000000000005      61.115000000000009
   214   1      7.1900000000000048      52.127500000000005      62.912500000000001
   215   1      8.9875000000000043      50.330000000000005      62.912500000000001
   216   1      8.9875000000000043      52.127500000000005      61.115000000000009
   217   1      7.1900000000000048      50.330000000000005      64.710000000000008
   218   1      8.9875000000000043      50.330000000000005      66.507500000000007
   219   1      8.9875000000000043      52.127500000000005      64.710000000000008
   220   1      8.9875000000000043      53.924999999999997      37.747500000000002
   221   1      7.1900000000000048      53.924999999999997      39.545000000000002
   222   1      7.1900000000000048      55.722500000000011      41.342500000000001
   223   1      8.9875000000000043      53.924999999999997      41.342500000000001
   224   1      8.9875000000000043      55.722500000000011      39.545000000000002
   225   1      7.1900000000000048      53.924999999999997      43.140000000000001
   226   1      7.1900000000000048      55.722500000000011                 44.9375
   227   1      8.9875000000000043      53.924999999999997                 44.9375
   228   1      8.9875000000000043      55.722500000000011      43.140000000000001
   229   1      7.1900000000000048      53.924999999999997      46.735000000000007
   230   1      7.1900000000000048      55.722500000000011      48.532500000000006
   231   1      8.9875000000000043      53.924999999999997      48.532500000000006
   232   1      8.9875000000000043      55.722500000000011      46.735000000000007
   233   1      7.1900000000000048      53.924999999999997      50.330000000000005
   234   1      7.1900000000000048      55.722500000000011      52.127500000000005
   235   1      8.9875000000000043      53.924999999999997      52.127500000000005
   236   1      8.9875000000000043      55.722500000000011      50.330000000000005
   237   1      7.1900000000000048      53.924999999999997      53.924999999999997
   238   1      7.1900000000000048      55.722500000000011      55.722500000000011
   239   1      8.9875000000000043      53.924999999999997      55.722500000000011
   240   1      8.9875000000000043      55.722500000000011      53.924999999999997
   241   1      7.1900000000000048      53.924999999999997      57.520000000000003
   242   1      7.1900000000000048      55.722500000000011      59.317500000000003
   243   1      8.9875000000000043      53.924999999999997      59.317500000000003
   244   1      8.9875000000000043      55.722500000000011      57.520000000000003
   245   1      7.1900000000000048      53.924999999999997      61.115000000000009
   246   1      8.9875000000000043      53.924999999999997      62.912500000000001
   247   1      8.9875000000000043      55.722500000000011      61.115000000000009
   248   1      8.9875000000000043      57.520000000000003      37.747500000000002
   249   1      8.9875000000000043      57.520000000000003      41.342500000000001
   250   1      8.9875000000000043      59.317500000000003      39.545000000000002
   251   1      7.1900000000000048      57.520000000000003      43.140000000000001
   252   1      7.1900000000000048      59.317500000000003                 44.9375
   253   1      8.9875000000000043      57.520000000000003                 44.9375
   254   1      8.9875000000000043      59.317500000000003      43.140000000000001
   255   1      7.1900000000000048      57.520000000000003      46.735000000000007
   256   1      7.1900000000000048      59.317500000000003      48.532500000000006
   257   1      8.9875000000000043      57.520000000000003      48.532500000000006
   258   1      8.9875000000000043      59.317500000000003      46.735000000000007
   259   1      7.1900000000000048      57.520000000000003      50.330000000000005
   260   1      7.1900000000000048      59.317500000000003      52.127500000000005
   261   1      8.9875000000000043      57.520000000000003      52.127500000000005
   262   1      8.9875000000000043      59.317500000000003      50.330000000000005
   263   1      7.1900000000000048      57.520000000000003      53.924999999999997
   264   1      7.1900000000000048      59.317500000000003      55.722500000000011
   265   1      8.9875000000000043      57.520000000000003      55.722500000000011
   266   1      8.9875000000000043      59.317500000000003      53.924999999999997
   267   1      7.1900000000000048      57.520000000000003      57.520000000000003
   268   1      8.9875000000000043      57.520000000000003      59.317500000000003
   269   1      8.9875000000000043      59.317500000000003      57.520000000000003
   270   1      8.9875000000000043      57.520000000000003      62.912500000000001
   271   1      8.9875000000000043      59.317500000000003      61.115000000000009
   272   1      8.9875000000000043      61.115000000000009      41.342500000000001
   273   1      8.9875000000000043      61.115000000000009                 44.9375
   274   1      8.9875000000000043      62.912500000000001      43.140000000000001
   275   1      7.1900000000000048      61.115000000000009      46.735000000000007
   276   1      7.1900000000000048      62.912500000000001      48.532500000000006
   277   1      8.9875000000000043      61.115000000000009      48.532500000000006
   278   1      8.9875000000000043      62.912500000000001      46.735000000000007
   279   1      7.1900000000000048      61.115000000000009      50.330000000000005
   280   1      7.1900000000000048      62.912500000000001      52.127500000000005
   281   1      8.9875000000000043      61.115000000000009      52.127500000000005
   282   1      8.9875000000000043      62.912500000000001      50.330000000000005
   283   1      7.1900000000000048      61.115000000000009      53.924999999999997
   284   1      8.9875000000000043      61.115000000000009      55.722500000000011
   285   1      8.9875000000000043      62.912500000000001      53.924999999999997
   286   1      8.9875000000000043      61.115000000000009      59.317500000000003
   287   1      8.9875000000000043      62.912500000000001      57.520000000000003
   288   1      8.9875000000000043      64.710000000000008      48.532500000000006
   289   1      7.1900000000000048      64.710000000000008      50.330000000000005
   290   1      8.9875000000000043      64.710000000000008      52.127500000000005
   291   1      8.9875000000000043      66.507500000000007      50.330000000000005
   292   1      12.582500000000001      26.962499999999999      50.330000000000005
   293   1      12.582500000000001      28.760000000000009      48.532500000000006
   294   1      12.582500000000001      30.557500000000005      46.735000000000007
   295   1      12.582500000000001      28.760000000000009      52.127500000000005
   296   1      12.582500000000001      30.557500000000005      50.330000000000005
   297   1      12.582500000000001      30.557500000000005      53.924999999999997
   298   1      12.582500000000001      34.152500000000003      39.545000000000002
   299   1      10.785000000000004      34.152500000000003                 44.9375
   300   1      12.582500000000001      32.355000000000004                 44.9375
   301   1      12.582500000000001      34.152500000000003      43.140000000000001
   302   1      10.785000000000004      32.355000000000004      46.735000000000007
   303   1      10.785000000000004      34.152500000000003      48.532500000000006
   304   1      12.582500000000001      32.355000000000004      48.532500000000006
   305   1      12.582500000000001      34.152500000000003      46.735000000000007
   306   1      10.785000000000004      32.355000000000004      50.330000000000005
   307   1      10.785000000000004      34.152500000000003      52.127500000000005
   308   1      12.582500000000001      32.355000000000004      52.127500000000005
   309   1      12.582500000000001      34.152500000000003      50.330000000000005
   310   1      10.785000000000004      32.355000000000004      53.924999999999997
   311   1      10.785000000000004      34.152500000000003      55.722500000000011
   312   1      12.582500000000001      32.355000000000004      55.722500000000011
   313   1      12.582500000000001      34.152500000000003      53.924999999999997
   314   1      12.582500000000001      34.152500000000003      57.520000000000003
   315   1      12.582500000000001      34.152500000000003      61.115000000000009
   316   1      12.582500000000001      35.950000000000003      37.747500000000002
   317   1      12.582500000000001      37.747500000000002      35.950000000000003
   318   1      10.785000000000004      37.747500000000002      41.342500000000001
   319   1      12.582500000000001      35.950000000000003      41.342500000000001
   320   1      12.582500000000001      37.747500000000002      39.545000000000002
   321   1      10.785000000000004      35.950000000000003      43.140000000000001
   322   1      10.785000000000004      37.747500000000002                 44.9375
   323   1      12.582500000000001      35.950000000000003                 44.9375
   324   1      12.582500000000001      37.747500000000002      43.140000000000001
   325   1      10.785000000000004      35.950000000000003      46.735000000000007
   326   1      10.785000000000004      37.747500000000002      48.532500000000006
   327   1      12.582500000000001      35.950000000000003      48.532500000000006
   328   1      12.582500000000001      37.747500000000002      46.735000000000007
   329   1      10.785000000000004      35.950000000000003      50.330000000000005
   330   1      10.785000000000004      37.747500000000002      52.127500000000005
   331   1      12.582500000000001      35.950000000000003      52.127500000000005
   332   1      12.582500000000001      37.747500000000002      50.330000000000005
   333   1      10.785000000000004      35.950000000000003      53.924999999999997
   334   1      10.785000000000004      37.747500000000002      55.722500000000011
   335   1      12.582500000000001      35.950000000000003      55.722500000000011
   336   1      12.582500000000001      37.747500000000002      53.924999999999997
   337   1      10.785000000000004      35.950000000000003      57.520000000000003
   338   1      10.785000000000004      37.747500000000002      59.317500000000003
   339   1      12.582500000000001      35.950000000000003      59.317500000000003
   340   1      12.582500000000001      37.747500000000002      57.520000000000003
   341   1      12.582500000000001      35.950000000000003      62.912500000000001
   342   1      12.582500000000001      37.747500000000002      61.115000000000009
   343   1      12.582500000000001      37.747500000000002      64.710000000000008
   344   1      12.582500000000001      39.545000000000002      34.152500000000003
   345   1      10.785000000000004      41.342500000000001      37.747500000000002
   346   1      12.582500000000001      39.545000000000002      37.747500000000002
   347   1      12.582500000000001      41.342500000000001      35.950000000000003
   348   1      10.785000000000004      39.545000000000002      39.545000000000002
   349   1      10.785000000000004      41.342500000000001      41.342500000000001
   350   1      12.582500000000001      39.545000000000002      41.342500000000001
   351   1      12.582500000000001      41.342500000000001      39.545000000000002
   352   1      10.785000000000004      39.545000000000002      43.140000000000001
   353   1      10.785000000000004      41.342500000000001                 44.9375
   354   1      12.582500000000001      39.545000000000002                 44.9375
   355   1      12.582500000000001      41.342500000000001      43.140000000000001
   356   1      10.785000000000004      39.545000000000002      46.735000000000007
   357   1      10.785000000000004      41.342500000000001      48.532500000000006
   358   1      12.582500000000001      39.545000000000002      48.532500000000006