model_files/Pd/Pd_30000/Pd_331/data.Pd_331_fcc_30729 (written by ASE) 

30729 	 atoms 
1  atom types
0.0                     124  xlo xhi
0.0                     124  ylo yhi
0.0                     124  zlo zhi


Atoms 

     1   1      1.9450000000000143      60.295000000000016      62.240000000000002
     2   1      1.9450000000000143      62.240000000000002      60.295000000000016
     3   1  1.4210854715202004e-14      62.240000000000002      62.240000000000002
     4   1      1.9450000000000143      62.240000000000002      64.185000000000002
     5   1      1.9450000000000143      64.185000000000002      62.240000000000002
     6   1      5.8350000000000151      56.405000000000015      58.350000000000016
     7   1      5.8350000000000151      56.405000000000015      62.240000000000002
     8   1      5.8350000000000151      56.405000000000015      66.129999999999995
     9   1      5.8350000000000151      58.350000000000016      56.405000000000015
    10   1      3.8900000000000148      58.350000000000016      58.350000000000016
    11   1      3.8900000000000148      60.295000000000016      60.295000000000016
    12   1      5.8350000000000151      58.350000000000016      60.295000000000016
    13   1      5.8350000000000151      60.295000000000016      58.350000000000016
    14   1      3.8900000000000148      58.350000000000016      62.240000000000002
    15   1      3.8900000000000148      60.295000000000016      64.185000000000002
    16   1      5.8350000000000151      58.350000000000016      64.185000000000002
    17   1      5.8350000000000151      60.295000000000016      62.240000000000002
    18   1      3.8900000000000148      58.350000000000016      66.129999999999995
    19   1      5.8350000000000151      58.350000000000016      68.074999999999989
    20   1      5.8350000000000151      60.295000000000016      66.129999999999995
    21   1      5.8350000000000151      62.240000000000002      56.405000000000015
    22   1      3.8900000000000148      62.240000000000002      58.350000000000016
    23   1      3.8900000000000148      64.185000000000002      60.295000000000016
    24   1      5.8350000000000151      62.240000000000002      60.295000000000016
    25   1      5.8350000000000151      64.185000000000002      58.350000000000016
    26   1      3.8900000000000148      62.240000000000002      62.240000000000002
    27   1      3.8900000000000148      64.185000000000002      64.185000000000002
    28   1      5.8350000000000151      62.240000000000002      64.185000000000002
    29   1      5.8350000000000151      64.185000000000002      62.240000000000002
    30   1      3.8900000000000148      62.240000000000002      66.129999999999995
    31   1      5.8350000000000151      62.240000000000002      68.074999999999989
    32   1      5.8350000000000151      64.185000000000002      66.129999999999995
    33   1      5.8350000000000151      66.129999999999995      56.405000000000015
    34   1      3.8900000000000148      66.129999999999995      58.350000000000016
    35   1      5.8350000000000151      66.129999999999995      60.295000000000016
    36   1      5.8350000000000151      68.074999999999989      58.350000000000016
    37   1      3.8900000000000148      66.129999999999995      62.240000000000002
    38   1      5.8350000000000151      66.129999999999995      64.185000000000002
    39   1      5.8350000000000151      68.074999999999989      62.240000000000002
    40   1      3.8900000000000148      66.129999999999995      66.129999999999995
    41   1      5.8350000000000151      66.129999999999995      68.074999999999989
    42   1      5.8350000000000151      68.074999999999989      66.129999999999995
    43   1      9.7250000000000156      52.515000000000015      58.350000000000016
    44   1      9.7250000000000156      52.515000000000015      62.240000000000002
    45   1      9.7250000000000156      52.515000000000015      66.129999999999995
    46   1      7.7800000000000153      56.405000000000015      56.405000000000015
    47   1      9.7250000000000156      54.460000000000015      56.405000000000015
    48   1      9.7250000000000156      56.405000000000015      54.460000000000015
    49   1      7.7800000000000153      54.460000000000015      58.350000000000016
    50   1      7.7800000000000153      56.405000000000015      60.295000000000016
    51   1      9.7250000000000156      54.460000000000015      60.295000000000016
    52   1      9.7250000000000156      56.405000000000015      58.350000000000016
    53   1      7.7800000000000153      54.460000000000015      62.240000000000002
    54   1      7.7800000000000153      56.405000000000015      64.185000000000002
    55   1      9.7250000000000156      54.460000000000015      64.185000000000002
    56   1      9.7250000000000156      56.405000000000015      62.240000000000002
    57   1      7.7800000000000153      54.460000000000015      66.129999999999995
    58   1      7.7800000000000153      56.405000000000015      68.074999999999989
    59   1      9.7250000000000156      54.460000000000015      68.074999999999989
    60   1      9.7250000000000156      56.405000000000015      66.129999999999995
    61   1      9.7250000000000156      56.405000000000015      70.019999999999996
    62   1      9.7250000000000156      58.350000000000016      52.515000000000015
    63   1      7.7800000000000153      58.350000000000016      54.460000000000015
    64   1      7.7800000000000153      60.295000000000016      56.405000000000015
    65   1      9.7250000000000156      58.350000000000016      56.405000000000015
    66   1      9.7250000000000156      60.295000000000016      54.460000000000015
    67   1      7.7800000000000153      58.350000000000016      58.350000000000016
    68   1      7.7800000000000153      60.295000000000016      60.295000000000016
    69   1      9.7250000000000156      58.350000000000016      60.295000000000016
    70   1      9.7250000000000156      60.295000000000016      58.350000000000016
    71   1      7.7800000000000153      58.350000000000016      62.240000000000002
    72   1      7.7800000000000153      60.295000000000016      64.185000000000002
    73   1      9.7250000000000156      58.350000000000016      64.185000000000002
    74   1      9.7250000000000156      60.295000000000016      62.240000000000002
    75   1      7.7800000000000153      58.350000000000016      66.129999999999995
    76   1      7.7800000000000153      60.295000000000016      68.074999999999989
    77   1      9.7250000000000156      58.350000000000016      68.074999999999989
    78   1      9.7250000000000156      60.295000000000016      66.129999999999995
    79   1      7.7800000000000153      58.350000000000016      70.019999999999996
    80   1      9.7250000000000156      58.350000000000016      71.964999999999989
    81   1      9.7250000000000156      60.295000000000016      70.019999999999996
    82   1      9.7250000000000156      62.240000000000002      52.515000000000015
    83   1      7.7800000000000153      62.240000000000002      54.460000000000015
    84   1      7.7800000000000153      64.185000000000002      56.405000000000015
    85   1      9.7250000000000156      62.240000000000002      56.405000000000015
    86   1      9.7250000000000156      64.185000000000002      54.460000000000015
    87   1      7.7800000000000153      62.240000000000002      58.350000000000016
    88   1      7.7800000000000153      64.185000000000002      60.295000000000016
    89   1      9.7250000000000156      62.240000000000002      60.295000000000016
    90   1      9.7250000000000156      64.185000000000002      58.350000000000016
    91   1      7.7800000000000153      62.240000000000002      62.240000000000002
    92   1      7.7800000000000153      64.185000000000002      64.185000000000002
    93   1      9.7250000000000156      62.240000000000002      64.185000000000002
    94   1      9.7250000000000156      64.185000000000002      62.240000000000002
    95   1      7.7800000000000153      62.240000000000002      66.129999999999995
    96   1      7.7800000000000153      64.185000000000002      68.074999999999989
    97   1      9.7250000000000156      62.240000000000002      68.074999999999989
    98   1      9.7250000000000156      64.185000000000002      66.129999999999995
    99   1      7.7800000000000153      62.240000000000002      70.019999999999996
   100   1      9.7250000000000156      62.240000000000002      71.964999999999989
   101   1      9.7250000000000156      64.185000000000002      70.019999999999996
   102   1      9.7250000000000156      66.129999999999995      52.515000000000015
   103   1      7.7800000000000153      66.129999999999995      54.460000000000015
   104   1      7.7800000000000153      68.074999999999989      56.405000000000015
   105   1      9.7250000000000156      66.129999999999995      56.405000000000015
   106   1      9.7250000000000156      68.074999999999989      54.460000000000015
   107   1      7.7800000000000153      66.129999999999995      58.350000000000016
   108   1      7.7800000000000153      68.074999999999989      60.295000000000016
   109   1      9.7250000000000156      66.129999999999995      60.295000000000016
   110   1      9.7250000000000156      68.074999999999989      58.350000000000016
   111   1      7.7800000000000153      66.129999999999995      62.240000000000002
   112   1      7.7800000000000153      68.074999999999989      64.185000000000002
   113   1      9.7250000000000156      66.129999999999995      64.185000000000002
   114   1      9.7250000000000156      68.074999999999989      62.240000000000002
   115   1      7.7800000000000153      66.129999999999995      66.129999999999995
   116   1      7.7800000000000153      68.074999999999989      68.074999999999989
   117   1      9.7250000000000156      66.129999999999995      68.074999999999989
   118   1      9.7250000000000156      68.074999999999989      66.129999999999995
   119   1      7.7800000000000153      66.129999999999995      70.019999999999996
   120   1      9.7250000000000156      66.129999999999995      71.964999999999989
   121   1      9.7250000000000156      68.074999999999989      70.019999999999996
   122   1      9.7250000000000156      70.019999999999996      56.405000000000015
   123   1      7.7800000000000153      70.019999999999996      58.350000000000016
   124   1      9.7250000000000156      70.019999999999996      60.295000000000016
   125   1      9.7250000000000156      71.964999999999989      58.350000000000016
   126   1      7.7800000000000153      70.019999999999996      62.240000000000002
   127   1      9.7250000000000156      70.019999999999996      64.185000000000002
   128   1      9.7250000000000156      71.964999999999989      62.240000000000002
   129   1      7.7800000000000153      70.019999999999996      66.129999999999995
   130   1      9.7250000000000156      70.019999999999996      68.074999999999989
   131   1      9.7250000000000156      71.964999999999989      66.129999999999995
   132   1      13.615000000000009      48.625000000000014      58.350000000000016
   133   1      13.615000000000009      48.625000000000014      62.240000000000002
   134   1      13.615000000000009      48.625000000000014      66.129999999999995
   135   1      11.670000000000016      52.515000000000015      52.515000000000015
   136   1      13.615000000000009      50.570000000000014      52.515000000000015
   137   1      13.615000000000009      52.515000000000015      50.570000000000014
   138   1      11.670000000000016      52.515000000000015      56.405000000000015
   139   1      13.615000000000009      50.570000000000014      56.405000000000015
   140   1      13.615000000000009      52.515000000000015      54.460000000000015
   141   1      11.670000000000016      50.570000000000014      58.350000000000016
   142   1      11.670000000000016      52.515000000000015      60.295000000000016
   143   1      13.615000000000009      50.570000000000014      60.295000000000016
   144   1      13.615000000000009      52.515000000000015      58.350000000000016
   145   1      11.670000000000016      50.570000000000014      62.240000000000002
   146   1      11.670000000000016      52.515000000000015      64.185000000000002
   147   1      13.615000000000009      50.570000000000014      64.185000000000002
   148   1      13.615000000000009      52.515000000000015      62.240000000000002
   149   1      11.670000000000016      50.570000000000014      66.129999999999995
   150   1      11.670000000000016      52.515000000000015      68.074999999999989
   151   1      13.615000000000009      50.570000000000014      68.074999999999989
   152   1      13.615000000000009      52.515000000000015      66.129999999999995
   153   1      11.670000000000016      52.515000000000015      71.964999999999989
   154   1      13.615000000000009      50.570000000000014      71.964999999999989
   155   1      13.615000000000009      52.515000000000015      70.019999999999996
   156   1      13.615000000000009      52.515000000000015      73.909999999999997
   157   1      11.670000000000016      56.405000000000015      52.515000000000015
   158   1      13.615000000000009      54.460000000000015      52.515000000000015
   159   1      13.615000000000009      56.405000000000015      50.570000000000014
   160   1      11.670000000000016      54.460000000000015      54.460000000000015
   161   1      11.670000000000016      56.405000000000015      56.405000000000015
   162   1      13.615000000000009      54.460000000000015      56.405000000000015
   163   1      13.615000000000009      56.405000000000015      54.460000000000015
   164   1      11.670000000000016      54.460000000000015      58.350000000000016
   165   1      11.670000000000016      56.405000000000015      60.295000000000016
   166   1      13.615000000000009      54.460000000000015      60.295000000000016
   167   1      13.615000000000009      56.405000000000015      58.350000000000016
   168   1      11.670000000000016      54.460000000000015      62.240000000000002
   169   1      11.670000000000016      56.405000000000015      64.185000000000002
   170   1      13.615000000000009      54.460000000000015      64.185000000000002
   171   1      13.615000000000009      56.405000000000015      62.240000000000002
   172   1      11.670000000000016      54.460000000000015      66.129999999999995
   173   1      11.670000000000016      56.405000000000015      68.074999999999989
   174   1      13.615000000000009      54.460000000000015      68.074999999999989
   175   1      13.615000000000009      56.405000000000015      66.129999999999995
   176   1      11.670000000000016      54.460000000000015      70.019999999999996
   177   1      11.670000000000016      56.405000000000015      71.964999999999989
   178   1      13.615000000000009      54.460000000000015      71.964999999999989
   179   1      13.615000000000009      56.405000000000015      70.019999999999996
   180   1      13.615000000000009      56.405000000000015      73.909999999999997
   181   1      13.615000000000009      58.350000000000016      48.625000000000014
   182   1      11.670000000000016      58.350000000000016      50.570000000000014
   183   1      11.670000000000016      60.295000000000016      52.515000000000015
   184   1      13.615000000000009      58.350000000000016      52.515000000000015
   185   1      13.615000000000009      60.295000000000016      50.570000000000014
   186   1      11.670000000000016      58.350000000000016      54.460000000000015
   187   1      11.670000000000016      60.295000000000016      56.405000000000015
   188   1      13.615000000000009      58.350000000000016      56.405000000000015
   189   1      13.615000000000009      60.295000000000016      54.460000000000015
   190   1      11.670000000000016      58.350000000000016      58.350000000000016
   191   1      11.670000000000016      60.295000000000016      60.295000000000016
   192   1      13.615000000000009      58.350000000000016      60.295000000000016
   193   1      13.615000000000009      60.295000000000016      58.350000000000016
   194   1      11.670000000000016      58.350000000000016      62.240000000000002
   195   1      11.670000000000016      60.295000000000016      64.185000000000002
   196   1      13.615000000000009      58.350000000000016      64.185000000000002
   197   1      13.615000000000009      60.295000000000016      62.240000000000002
   198   1      11.670000000000016      58.350000000000016      66.129999999999995
   199   1      11.670000000000016      60.295000000000016      68.074999999999989
   200   1      13.615000000000009      58.350000000000016      68.074999999999989
   201   1      13.615000000000009      60.295000000000016      66.129999999999995
   202   1      11.670000000000016      58.350000000000016      70.019999999999996
   203   1      11.670000000000016      60.295000000000016      71.964999999999989
   204   1      13.615000000000009      58.350000000000016      71.964999999999989
   205   1      13.615000000000009      60.295000000000016      70.019999999999996
   206   1      11.670000000000016      58.350000000000016      73.909999999999997
   207   1      13.615000000000009      58.350000000000016       75.85499999999999
   208   1      13.615000000000009      60.295000000000016      73.909999999999997
   209   1      13.615000000000009      62.240000000000002      48.625000000000014
   210   1      11.670000000000016      62.240000000000002      50.570000000000014
   211   1      11.670000000000016      64.185000000000002      52.515000000000015
   212   1      13.615000000000009      62.240000000000002      52.515000000000015
   213   1      13.615000000000009      64.185000000000002      50.570000000000014
   214   1      11.670000000000016      62.240000000000002      54.460000000000015
   215   1      11.670000000000016      64.185000000000002      56.405000000000015
   216   1      13.615000000000009      62.240000000000002      56.405000000000015
   217   1      13.615000000000009      64.185000000000002      54.460000000000015
   218   1      11.670000000000016      62.240000000000002      58.350000000000016
   219   1      11.670000000000016      64.185000000000002      60.295000000000016
   220   1      13.615000000000009      62.240000000000002      60.295000000000016
   221   1      13.615000000000009      64.185000000000002      58.350000000000016
   222   1      11.670000000000016      62.240000000000002      62.240000000000002
   223   1      11.670000000000016      64.185000000000002      64.185000000000002
   224   1      13.615000000000009      62.240000000000002      64.185000000000002
   225   1      13.615000000000009      64.185000000000002      62.240000000000002
   226   1      11.670000000000016      62.240000000000002      66.129999999999995
   227   1      11.670000000000016      64.185000000000002      68.074999999999989
   228   1      13.615000000000009      62.240000000000002      68.074999999999989
   229   1      13.615000000000009      64.185000000000002      66.129999999999995
   230   1      11.670000000000016      62.240000000000002      70.019999999999996
   231   1      11.670000000000016      64.185000000000002      71.964999999999989
   232   1      13.615000000000009      62.240000000000002      71.964999999999989
   233   1      13.615000000000009      64.185000000000002      70.019999999999996
   234   1      11.670000000000016      62.240000000000002      73.909999999999997
   235   1      13.615000000000009      62.240000000000002       75.85499999999999
   236   1      13.615000000000009      64.185000000000002      73.909999999999997
   237   1      13.615000000000009      66.129999999999995      48.625000000000014
   238   1      11.670000000000016      66.129999999999995      50.570000000000014
   239   1      11.670000000000016      68.074999999999989      52.515000000000015
   240   1      13.615000000000009      66.129999999999995      52.515000000000015
   241   1      13.615000000000009      68.074999999999989      50.570000000000014
   242   1      11.670000000000016      66.129999999999995      54.460000000000015
   243   1      11.670000000000016      68.074999999999989      56.405000000000015
   244   1      13.615000000000009      66.129999999999995      56.405000000000015
   245   1      13.615000000000009      68.074999999999989      54.460000000000015
   246   1      11.670000000000016      66.129999999999995      58.350000000000016
   247   1      11.670000000000016      68.074999999999989      60.295000000000016
   248   1      13.615000000000009      66.129999999999995      60.295000000000016
   249   1      13.615000000000009      68.074999999999989      58.350000000000016
   250   1      11.670000000000016      66.129999999999995      62.240000000000002
   251   1      11.670000000000016      68.074999999999989      64.185000000000002
   252   1      13.615000000000009      66.129999999999995      64.185000000000002
   253   1      13.615000000000009      68.074999999999989      62.240000000000002
   254   1      11.670000000000016      66.129999999999995      66.129999999999995
   255   1      11.670000000000016      68.074999999999989      68.074999999999989
   256   1      13.615000000000009      66.129999999999995      68.074999999999989
   257   1      13.615000000000009      68.074999999999989      66.129999999999995
   258   1      11.670000000000016      66.129999999999995      70.019999999999996
   259   1      11.670000000000016      68.074999999999989      71.964999999999989
   260   1      13.615000000000009      66.129999999999995      71.964999999999989
   261   1      13.615000000000009      68.074999999999989      70.019999999999996
   262   1      11.670000000000016      66.129999999999995      73.909999999999997
   263   1      13.615000000000009      66.129999999999995       75.85499999999999
   264   1      13.615000000000009      68.074999999999989      73.909999999999997
   265   1      11.670000000000016      71.964999999999989      52.515000000000015
   266   1      13.615000000000009      70.019999999999996      52.515000000000015
   267   1      13.615000000000009      71.964999999999989      50.570000000000014
   268   1      11.670000000000016      70.019999999999996      54.460000000000015
   269   1      11.670000000000016      71.964999999999989      56.405000000000015
   270   1      13.615000000000009      70.019999999999996      56.405000000000015
   271   1      13.615000000000009      71.964999999999989      54.460000000000015
   272   1      11.670000000000016      70.019999999999996      58.350000000000016
   273   1      11.670000000000016      71.964999999999989      60.295000000000016
   274   1      13.615000000000009      70.019999999999996      60.295000000000016
   275   1      13.615000000000009      71.964999999999989      58.350000000000016
   276   1      11.670000000000016      70.019999999999996      62.240000000000002
   277   1      11.670000000000016      71.964999999999989      64.185000000000002
   278   1      13.615000000000009      70.019999999999996      64.185000000000002
   279   1      13.615000000000009      71.964999999999989      62.240000000000002
   280   1      11.670000000000016      70.019999999999996      66.129999999999995
   281   1      11.670000000000016      71.964999999999989      68.074999999999989
   282   1      13.615000000000009      70.019999999999996      68.074999999999989
   283   1      13.615000000000009      71.964999999999989      66.129999999999995
   284   1      11.670000000000016      70.019999999999996      70.019999999999996
   285   1      11.670000000000016      71.964999999999989      71.964999999999989
   286   1      13.615000000000009      70.019999999999996      71.964999999999989
   287   1      13.615000000000009      71.964999999999989      70.019999999999996
   288   1      13.615000000000009      71.964999999999989      73.909999999999997
   289   1      13.615000000000009      73.909999999999997      52.515000000000015
   290   1      13.615000000000009      73.909999999999997      56.405000000000015
   291   1      11.670000000000016      73.909999999999997      58.350000000000016
   292   1      13.615000000000009      73.909999999999997      60.295000000000016
   293   1      13.615000000000009       75.85499999999999      58.350000000000016
   294   1      11.670000000000016      73.909999999999997      62.240000000000002
   295   1      13.615000000000009      73.909999999999997      64.185000000000002
   296   1      13.615000000000009       75.85499999999999      62.240000000000002
   297   1      11.670000000000016      73.909999999999997      66.129999999999995
   298   1      13.615000000000009      73.909999999999997      68.074999999999989
   299   1      13.615000000000009       75.85499999999999      66.129999999999995
   300   1      13.615000000000009      73.909999999999997      71.964999999999989
   301   1       17.50500000000001      44.735000000000014      58.350000000000016
   302   1       17.50500000000001      44.735000000000014      62.240000000000002
   303   1       17.50500000000001      44.735000000000014      66.129999999999995
   304   1      15.560000000000018      48.625000000000014      52.515000000000015
   305   1       17.50500000000001      46.680000000000014      52.515000000000015
   306   1       17.50500000000001      48.625000000000014      50.570000000000014
   307   1      15.560000000000018      48.625000000000014      56.405000000000015
   308   1       17.50500000000001      46.680000000000014      56.405000000000015
   309   1       17.50500000000001      48.625000000000014      54.460000000000015
   310   1      15.560000000000018      46.680000000000014      58.350000000000016
   311   1      15.560000000000018      48.625000000000014      60.295000000000016
   312   1       17.50500000000001      46.680000000000014      60.295000000000016
   313   1       17.50500000000001      48.625000000000014      58.350000000000016
   314   1      15.560000000000018      46.680000000000014      62.240000000000002
   315   1      15.560000000000018      48.625000000000014      64.185000000000002
   316   1       17.50500000000001      46.680000000000014      64.185000000000002
   317   1       17.50500000000001      48.625000000000014      62.240000000000002
   318   1      15.560000000000018      46.680000000000014      66.129999999999995
   319   1      15.560000000000018      48.625000000000014      68.074999999999989
   320   1       17.50500000000001      46.680000000000014      68.074999999999989
   321   1       17.50500000000001      48.625000000000014      66.129999999999995
   322   1      15.560000000000018      48.625000000000014      71.964999999999989
   323   1       17.50500000000001      46.680000000000014      71.964999999999989
   324   1       17.50500000000001      48.625000000000014      70.019999999999996
   325   1       17.50500000000001      48.625000000000014      73.909999999999997
   326   1      15.560000000000018      52.515000000000015      48.625000000000014
   327   1       17.50500000000001      50.570000000000014      48.625000000000014
   328   1       17.50500000000001      52.515000000000015      46.680000000000014
   329   1      15.560000000000018      50.570000000000014      50.570000000000014
   330   1      15.560000000000018      52.515000000000015      52.515000000000015
   331   1       17.50500000000001      50.570000000000014      52.515000000000015
   332   1       17.50500000000001      52.515000000000015      50.570000000000014
   333   1      15.560000000000018      50.570000000000014      54.460000000000015
   334   1      15.560000000000018      52.515000000000015      56.405000000000015
   335   1       17.50500000000001      50.570000000000014      56.405000000000015
   336   1       17.50500000000001      52.515000000000015      54.460000000000015
   337   1      15.560000000000018      50.570000000000014      58.350000000000016
   338   1      15.560000000000018      52.515000000000015      60.295000000000016
   339   1       17.50500000000001      50.570000000000014      60.295000000000016
   340   1       17.50500000000001      52.515000000000015      58.350000000000016
   341   1      15.560000000000018      50.570000000000014      62.240000000000002
   342   1      15.560000000000018      52.515000000000015      64.185000000000002
   343   1       17.50500000000001      50.570000000000014      64.185000000000002
   344   1       17.50500000000001      52.515000000000015      62.240000000000002
   345   1      15.560000000000018      50.570000000000014      66.129999999999995
   346   1      15.560000000000018      52.515000000000015      68.074999999999989
   347   1       17.50500000000001      50.570000000000014      68.074999999999989
   348   1       17.50500000000001      52.515000000000015      66.129999999999995
   349   1      15.560000000000018      50.570000000000014      70.019999999999996
   350   1      15.560000000000018      52.515000000000015      71.964999999999989
   351   1       17.50500000000001      50.570000000000014      71.964999999999989
   352   1       17.50500000000001      52.515000000000015      70.019999999999996
   353   1      15.560000000000018      50.570000000000014      73.909999999999997
   354   1      15.560000000000018      52.515000000000015       75.85499999999999
   355   1       17.50500000000001      50.570000000000014       75.85499999999999
   356   1       17.50500000000001      52.515000000000015      73.909999999999997
   357   1       17.50500000000001      52.515000000000015      77.799999999999997
   358   1      15.560000000000018      56.405000000000015      48.625000000000014