model_files/Au/Au_30000/Au_522/data.Au_522_fcc_30243 (written by ASE) 

30243 	 atoms 
1  atom types
0.0                     106  xlo xhi
0.0                     106  ylo yhi
0.0                     106  zlo zhi


Atoms 

     1   1      2.0399999999999849      46.919999999999987      53.039999999999992
     2   1      2.0399999999999849      48.959999999999987      50.999999999999986
     3   1      2.0399999999999849      50.999999999999986      48.959999999999987
     4   1      2.0399999999999849      48.959999999999987      55.079999999999984
     5   1      2.0399999999999849      50.999999999999986      53.039999999999992
     6   1      2.0399999999999849      50.999999999999986       57.11999999999999
     7   1      2.0399999999999849      53.039999999999992      46.919999999999987
     8   1      2.0399999999999849      53.039999999999992      50.999999999999986
     9   1      2.0399999999999849      55.079999999999984      48.959999999999987
    10   1      105.99999999999999      53.039999999999992      53.039999999999992
    11   1      2.0399999999999849      53.039999999999992      55.079999999999984
    12   1      2.0399999999999849      55.079999999999984      53.039999999999992
    13   1      2.0399999999999849      53.039999999999992      59.159999999999982
    14   1      2.0399999999999849      55.079999999999984       57.11999999999999
    15   1      2.0399999999999849       57.11999999999999      50.999999999999986
    16   1      2.0399999999999849       57.11999999999999      55.079999999999984
    17   1      2.0399999999999849      59.159999999999982      53.039999999999992
    18   1      6.1199999999999903      34.679999999999986      53.039999999999992
    19   1      6.1199999999999903      36.719999999999985      50.999999999999986
    20   1      6.1199999999999903      38.759999999999984      48.959999999999987
    21   1      6.1199999999999903      36.719999999999985      55.079999999999984
    22   1      6.1199999999999903      38.759999999999984      53.039999999999992
    23   1      6.1199999999999903      38.759999999999984       57.11999999999999
    24   1      6.1199999999999903       40.79999999999999      46.919999999999987
    25   1      6.1199999999999903      42.839999999999989      44.879999999999988
    26   1      4.0799999999999841      42.839999999999989      50.999999999999986
    27   1      6.1199999999999903       40.79999999999999      50.999999999999986
    28   1      6.1199999999999903      42.839999999999989      48.959999999999987
    29   1      4.0799999999999841       40.79999999999999      53.039999999999992
    30   1      4.0799999999999841      42.839999999999989      55.079999999999984
    31   1      6.1199999999999903       40.79999999999999      55.079999999999984
    32   1      6.1199999999999903      42.839999999999989      53.039999999999992
    33   1      6.1199999999999903       40.79999999999999      59.159999999999982
    34   1      6.1199999999999903      42.839999999999989       57.11999999999999
    35   1      6.1199999999999903      42.839999999999989      61.199999999999989
    36   1      6.1199999999999903      44.879999999999988      42.839999999999989
    37   1      6.1199999999999903      46.919999999999987       40.79999999999999
    38   1      4.0799999999999841      46.919999999999987      46.919999999999987
    39   1      6.1199999999999903      44.879999999999988      46.919999999999987
    40   1      6.1199999999999903      46.919999999999987      44.879999999999988
    41   1      4.0799999999999841      44.879999999999988      48.959999999999987
    42   1      4.0799999999999841      46.919999999999987      50.999999999999986
    43   1      6.1199999999999903      44.879999999999988      50.999999999999986
    44   1      6.1199999999999903      46.919999999999987      48.959999999999987
    45   1      4.0799999999999841      44.879999999999988      53.039999999999992
    46   1      4.0799999999999841      46.919999999999987      55.079999999999984
    47   1      6.1199999999999903      44.879999999999988      55.079999999999984
    48   1      6.1199999999999903      46.919999999999987      53.039999999999992
    49   1      4.0799999999999841      44.879999999999988       57.11999999999999
    50   1      4.0799999999999841      46.919999999999987      59.159999999999982
    51   1      6.1199999999999903      44.879999999999988      59.159999999999982
    52   1      6.1199999999999903      46.919999999999987       57.11999999999999
    53   1      6.1199999999999903      44.879999999999988      63.239999999999988
    54   1      6.1199999999999903      46.919999999999987      61.199999999999989
    55   1      6.1199999999999903      46.919999999999987      65.279999999999987
    56   1      6.1199999999999903      48.959999999999987      38.759999999999984
    57   1      6.1199999999999903      50.999999999999986      36.719999999999985
    58   1      4.0799999999999841      50.999999999999986      42.839999999999989
    59   1      6.1199999999999903      48.959999999999987      42.839999999999989
    60   1      6.1199999999999903      50.999999999999986       40.79999999999999
    61   1      4.0799999999999841      48.959999999999987      44.879999999999988
    62   1      4.0799999999999841      50.999999999999986      46.919999999999987
    63   1      6.1199999999999903      48.959999999999987      46.919999999999987
    64   1      6.1199999999999903      50.999999999999986      44.879999999999988
    65   1      4.0799999999999841      48.959999999999987      48.959999999999987
    66   1      4.0799999999999841      50.999999999999986      50.999999999999986
    67   1      6.1199999999999903      48.959999999999987      50.999999999999986
    68   1      6.1199999999999903      50.999999999999986      48.959999999999987
    69   1      4.0799999999999841      48.959999999999987      53.039999999999992
    70   1      4.0799999999999841      50.999999999999986      55.079999999999984
    71   1      6.1199999999999903      48.959999999999987      55.079999999999984
    72   1      6.1199999999999903      50.999999999999986      53.039999999999992
    73   1      4.0799999999999841      48.959999999999987       57.11999999999999
    74   1      4.0799999999999841      50.999999999999986      59.159999999999982
    75   1      6.1199999999999903      48.959999999999987      59.159999999999982
    76   1      6.1199999999999903      50.999999999999986       57.11999999999999
    77   1      4.0799999999999841      48.959999999999987      61.199999999999989
    78   1      4.0799999999999841      50.999999999999986      63.239999999999988
    79   1      6.1199999999999903      48.959999999999987      63.239999999999988
    80   1      6.1199999999999903      50.999999999999986      61.199999999999989
    81   1      6.1199999999999903      48.959999999999987      67.319999999999993
    82   1      6.1199999999999903      50.999999999999986      65.279999999999987
    83   1      6.1199999999999903      50.999999999999986      69.359999999999985
    84   1      6.1199999999999903      53.039999999999992      34.679999999999986
    85   1      6.1199999999999903      53.039999999999992      38.759999999999984
    86   1      6.1199999999999903      55.079999999999984      36.719999999999985
    87   1      4.0799999999999841      53.039999999999992       40.79999999999999
    88   1      4.0799999999999841      55.079999999999984      42.839999999999989
    89   1      6.1199999999999903      53.039999999999992      42.839999999999989
    90   1      6.1199999999999903      55.079999999999984       40.79999999999999
    91   1      4.0799999999999841      53.039999999999992      44.879999999999988
    92   1      4.0799999999999841      55.079999999999984      46.919999999999987
    93   1      6.1199999999999903      53.039999999999992      46.919999999999987
    94   1      6.1199999999999903      55.079999999999984      44.879999999999988
    95   1      4.0799999999999841      53.039999999999992      48.959999999999987
    96   1      4.0799999999999841      55.079999999999984      50.999999999999986
    97   1      6.1199999999999903      53.039999999999992      50.999999999999986
    98   1      6.1199999999999903      55.079999999999984      48.959999999999987
    99   1      4.0799999999999841      53.039999999999992      53.039999999999992
   100   1      4.0799999999999841      55.079999999999984      55.079999999999984
   101   1      6.1199999999999903      53.039999999999992      55.079999999999984
   102   1      6.1199999999999903      55.079999999999984      53.039999999999992
   103   1      4.0799999999999841      53.039999999999992       57.11999999999999
   104   1      4.0799999999999841      55.079999999999984      59.159999999999982
   105   1      6.1199999999999903      53.039999999999992      59.159999999999982
   106   1      6.1199999999999903      55.079999999999984       57.11999999999999
   107   1      4.0799999999999841      53.039999999999992      61.199999999999989
   108   1      4.0799999999999841      55.079999999999984      63.239999999999988
   109   1      6.1199999999999903      53.039999999999992      63.239999999999988
   110   1      6.1199999999999903      55.079999999999984      61.199999999999989
   111   1      4.0799999999999841      53.039999999999992      65.279999999999987
   112   1      6.1199999999999903      53.039999999999992      67.319999999999993
   113   1      6.1199999999999903      55.079999999999984      65.279999999999987
   114   1      6.1199999999999903      53.039999999999992      71.399999999999977
   115   1      6.1199999999999903      55.079999999999984      69.359999999999985
   116   1      6.1199999999999903       57.11999999999999      38.759999999999984
   117   1      6.1199999999999903       57.11999999999999      42.839999999999989
   118   1      6.1199999999999903      59.159999999999982       40.79999999999999
   119   1      4.0799999999999841       57.11999999999999      44.879999999999988
   120   1      4.0799999999999841      59.159999999999982      46.919999999999987
   121   1      6.1199999999999903       57.11999999999999      46.919999999999987
   122   1      6.1199999999999903      59.159999999999982      44.879999999999988
   123   1      4.0799999999999841       57.11999999999999      48.959999999999987
   124   1      4.0799999999999841      59.159999999999982      50.999999999999986
   125   1      6.1199999999999903       57.11999999999999      50.999999999999986
   126   1      6.1199999999999903      59.159999999999982      48.959999999999987
   127   1      4.0799999999999841       57.11999999999999      53.039999999999992
   128   1      4.0799999999999841      59.159999999999982      55.079999999999984
   129   1      6.1199999999999903       57.11999999999999      55.079999999999984
   130   1      6.1199999999999903      59.159999999999982      53.039999999999992
   131   1      4.0799999999999841       57.11999999999999       57.11999999999999
   132   1      4.0799999999999841      59.159999999999982      59.159999999999982
   133   1      6.1199999999999903       57.11999999999999      59.159999999999982
   134   1      6.1199999999999903      59.159999999999982       57.11999999999999
   135   1      4.0799999999999841       57.11999999999999      61.199999999999989
   136   1      6.1199999999999903       57.11999999999999      63.239999999999988
   137   1      6.1199999999999903      59.159999999999982      61.199999999999989
   138   1      6.1199999999999903       57.11999999999999      67.319999999999993
   139   1      6.1199999999999903      59.159999999999982      65.279999999999987
   140   1      6.1199999999999903      61.199999999999989      42.839999999999989
   141   1      6.1199999999999903      61.199999999999989      46.919999999999987
   142   1      6.1199999999999903      63.239999999999988      44.879999999999988
   143   1      4.0799999999999841      61.199999999999989      48.959999999999987
   144   1      4.0799999999999841      63.239999999999988      50.999999999999986
   145   1      6.1199999999999903      61.199999999999989      50.999999999999986
   146   1      6.1199999999999903      63.239999999999988      48.959999999999987
   147   1      4.0799999999999841      61.199999999999989      53.039999999999992
   148   1      4.0799999999999841      63.239999999999988      55.079999999999984
   149   1      6.1199999999999903      61.199999999999989      55.079999999999984
   150   1      6.1199999999999903      63.239999999999988      53.039999999999992
   151   1      4.0799999999999841      61.199999999999989       57.11999999999999
   152   1      6.1199999999999903      61.199999999999989      59.159999999999982
   153   1      6.1199999999999903      63.239999999999988       57.11999999999999
   154   1      6.1199999999999903      61.199999999999989      63.239999999999988
   155   1      6.1199999999999903      63.239999999999988      61.199999999999989
   156   1      6.1199999999999903      65.279999999999987      46.919999999999987
   157   1      6.1199999999999903      65.279999999999987      50.999999999999986
   158   1      6.1199999999999903      67.319999999999993      48.959999999999987
   159   1      4.0799999999999841      65.279999999999987      53.039999999999992
   160   1      6.1199999999999903      65.279999999999987      55.079999999999984
   161   1      6.1199999999999903      67.319999999999993      53.039999999999992
   162   1      6.1199999999999903      65.279999999999987      59.159999999999982
   163   1      6.1199999999999903      67.319999999999993       57.11999999999999
   164   1      6.1199999999999903      69.359999999999985      50.999999999999986
   165   1      6.1199999999999903      69.359999999999985      55.079999999999984
   166   1      6.1199999999999903      71.399999999999977      53.039999999999992
   167   1      10.199999999999989      26.519999999999989      53.039999999999992
   168   1      10.199999999999989      28.559999999999988      50.999999999999986
   169   1      10.199999999999989      30.599999999999987      48.959999999999987
   170   1      10.199999999999989      28.559999999999988      55.079999999999984
   171   1      10.199999999999989      30.599999999999987      53.039999999999992
   172   1      10.199999999999989      30.599999999999987       57.11999999999999
   173   1      10.199999999999989      32.639999999999986      46.919999999999987
   174   1      10.199999999999989      34.679999999999986      44.879999999999988
   175   1      8.1599999999999895      34.679999999999986      50.999999999999986
   176   1      10.199999999999989      32.639999999999986      50.999999999999986
   177   1      10.199999999999989      34.679999999999986      48.959999999999987
   178   1      8.1599999999999895      32.639999999999986      53.039999999999992
   179   1      8.1599999999999895      34.679999999999986      55.079999999999984
   180   1      10.199999999999989      32.639999999999986      55.079999999999984
   181   1      10.199999999999989      34.679999999999986      53.039999999999992
   182   1      10.199999999999989      32.639999999999986      59.159999999999982
   183   1      10.199999999999989      34.679999999999986       57.11999999999999
   184   1      10.199999999999989      34.679999999999986      61.199999999999989
   185   1      10.199999999999989      36.719999999999985      42.839999999999989
   186   1      10.199999999999989      38.759999999999984       40.79999999999999
   187   1      8.1599999999999895      38.759999999999984      46.919999999999987
   188   1      10.199999999999989      36.719999999999985      46.919999999999987
   189   1      10.199999999999989      38.759999999999984      44.879999999999988
   190   1      8.1599999999999895      36.719999999999985      48.959999999999987
   191   1      8.1599999999999895      38.759999999999984      50.999999999999986
   192   1      10.199999999999989      36.719999999999985      50.999999999999986
   193   1      10.199999999999989      38.759999999999984      48.959999999999987
   194   1      8.1599999999999895      36.719999999999985      53.039999999999992
   195   1      8.1599999999999895      38.759999999999984      55.079999999999984
   196   1      10.199999999999989      36.719999999999985      55.079999999999984
   197   1      10.199999999999989      38.759999999999984      53.039999999999992
   198   1      8.1599999999999895      36.719999999999985       57.11999999999999
   199   1      8.1599999999999895      38.759999999999984      59.159999999999982
   200   1      10.199999999999989      36.719999999999985      59.159999999999982
   201   1      10.199999999999989      38.759999999999984       57.11999999999999
   202   1      10.199999999999989      36.719999999999985      63.239999999999988
   203   1      10.199999999999989      38.759999999999984      61.199999999999989
   204   1      10.199999999999989      38.759999999999984      65.279999999999987
   205   1      10.199999999999989       40.79999999999999      38.759999999999984
   206   1      10.199999999999989      42.839999999999989      36.719999999999985
   207   1      8.1599999999999895      42.839999999999989      42.839999999999989
   208   1      10.199999999999989       40.79999999999999      42.839999999999989
   209   1      10.199999999999989      42.839999999999989       40.79999999999999
   210   1      8.1599999999999895       40.79999999999999      44.879999999999988
   211   1      8.1599999999999895      42.839999999999989      46.919999999999987
   212   1      10.199999999999989       40.79999999999999      46.919999999999987
   213   1      10.199999999999989      42.839999999999989      44.879999999999988
   214   1      8.1599999999999895       40.79999999999999      48.959999999999987
   215   1      8.1599999999999895      42.839999999999989      50.999999999999986
   216   1      10.199999999999989       40.79999999999999      50.999999999999986
   217   1      10.199999999999989      42.839999999999989      48.959999999999987
   218   1      8.1599999999999895       40.79999999999999      53.039999999999992
   219   1      8.1599999999999895      42.839999999999989      55.079999999999984
   220   1      10.199999999999989       40.79999999999999      55.079999999999984
   221   1      10.199999999999989      42.839999999999989      53.039999999999992
   222   1      8.1599999999999895       40.79999999999999       57.11999999999999
   223   1      8.1599999999999895      42.839999999999989      59.159999999999982
   224   1      10.199999999999989       40.79999999999999      59.159999999999982
   225   1      10.199999999999989      42.839999999999989       57.11999999999999
   226   1      8.1599999999999895       40.79999999999999      61.199999999999989
   227   1      8.1599999999999895      42.839999999999989      63.239999999999988
   228   1      10.199999999999989       40.79999999999999      63.239999999999988
   229   1      10.199999999999989      42.839999999999989      61.199999999999989
   230   1      10.199999999999989       40.79999999999999      67.319999999999993
   231   1      10.199999999999989      42.839999999999989      65.279999999999987
   232   1      10.199999999999989      42.839999999999989      69.359999999999985
   233   1      10.199999999999989      44.879999999999988      34.679999999999986
   234   1      10.199999999999989      46.919999999999987      32.639999999999986
   235   1      8.1599999999999895      46.919999999999987      38.759999999999984
   236   1      10.199999999999989      44.879999999999988      38.759999999999984
   237   1      10.199999999999989      46.919999999999987      36.719999999999985
   238   1      8.1599999999999895      44.879999999999988       40.79999999999999
   239   1      8.1599999999999895      46.919999999999987      42.839999999999989
   240   1      10.199999999999989      44.879999999999988      42.839999999999989
   241   1      10.199999999999989      46.919999999999987       40.79999999999999
   242   1      8.1599999999999895      44.879999999999988      44.879999999999988
   243   1      8.1599999999999895      46.919999999999987      46.919999999999987
   244   1      10.199999999999989      44.879999999999988      46.919999999999987
   245   1      10.199999999999989      46.919999999999987      44.879999999999988
   246   1      8.1599999999999895      44.879999999999988      48.959999999999987
   247   1      8.1599999999999895      46.919999999999987      50.999999999999986
   248   1      10.199999999999989      44.879999999999988      50.999999999999986
   249   1      10.199999999999989      46.919999999999987      48.959999999999987
   250   1      8.1599999999999895      44.879999999999988      53.039999999999992
   251   1      8.1599999999999895      46.919999999999987      55.079999999999984
   252   1      10.199999999999989      44.879999999999988      55.079999999999984
   253   1      10.199999999999989      46.919999999999987      53.039999999999992
   254   1      8.1599999999999895      44.879999999999988       57.11999999999999
   255   1      8.1599999999999895      46.919999999999987      59.159999999999982
   256   1      10.199999999999989      44.879999999999988      59.159999999999982
   257   1      10.199999999999989      46.919999999999987       57.11999999999999
   258   1      8.1599999999999895      44.879999999999988      61.199999999999989
   259   1      8.1599999999999895      46.919999999999987      63.239999999999988
   260   1      10.199999999999989      44.879999999999988      63.239999999999988
   261   1      10.199999999999989      46.919999999999987      61.199999999999989
   262   1      8.1599999999999895      44.879999999999988      65.279999999999987
   263   1      8.1599999999999895      46.919999999999987      67.319999999999993
   264   1      10.199999999999989      44.879999999999988      67.319999999999993
   265   1      10.199999999999989      46.919999999999987      65.279999999999987
   266   1      10.199999999999989      44.879999999999988      71.399999999999977
   267   1      10.199999999999989      46.919999999999987      69.359999999999985
   268   1      10.199999999999989      46.919999999999987      73.439999999999984
   269   1      10.199999999999989      48.959999999999987      30.599999999999987
   270   1      10.199999999999989      50.999999999999986      28.559999999999988
   271   1      8.1599999999999895      50.999999999999986      34.679999999999986
   272   1      10.199999999999989      48.959999999999987      34.679999999999986
   273   1      10.199999999999989      50.999999999999986      32.639999999999986
   274   1      8.1599999999999895      48.959999999999987      36.719999999999985
   275   1      8.1599999999999895      50.999999999999986      38.759999999999984
   276   1      10.199999999999989      48.959999999999987      38.759999999999984
   277   1      10.199999999999989      50.999999999999986      36.719999999999985
   278   1      8.1599999999999895      48.959999999999987       40.79999999999999
   279   1      8.1599999999999895      50.999999999999986      42.839999999999989
   280   1      10.199999999999989      48.959999999999987      42.839999999999989
   281   1      10.199999999999989      50.999999999999986       40.79999999999999
   282   1      8.1599999999999895      48.959999999999987      44.879999999999988
   283   1      8.1599999999999895      50.999999999999986      46.919999999999987
   284   1      10.199999999999989      48.959999999999987      46.919999999999987
   285   1      10.199999999999989      50.999999999999986      44.879999999999988
   286   1      8.1599999999999895      48.959999999999987      48.959999999999987
   287   1      8.1599999999999895      50.999999999999986      50.999999999999986
   288   1      10.199999999999989      48.959999999999987      50.999999999999986
   289   1      10.199999999999989      50.999999999999986      48.959999999999987
   290   1      8.1599999999999895      48.959999999999987      53.039999999999992
   291   1      8.1599999999999895      50.999999999999986      55.079999999999984
   292   1      10.199999999999989      48.959999999999987      55.079999999999984
   293   1      10.199999999999989      50.999999999999986      53.039999999999992
   294   1      8.1599999999999895      48.959999999999987       57.11999999999999
   295   1      8.1599999999999895      50.999999999999986      59.159999999999982
   296   1      10.199999999999989      48.959999999999987      59.159999999999982
   297   1      10.199999999999989      50.999999999999986       57.11999999999999
   298   1      8.1599999999999895      48.959999999999987      61.199999999999989
   299   1      8.1599999999999895      50.999999999999986      63.239999999999988
   300   1      10.199999999999989      48.959999999999987      63.239999999999988
   301   1      10.199999999999989      50.999999999999986      61.199999999999989
   302   1      8.1599999999999895      48.959999999999987      65.279999999999987
   303   1      8.1599999999999895      50.999999999999986      67.319999999999993
   304   1      10.199999999999989      48.959999999999987      67.319999999999993
   305   1      10.199999999999989      50.999999999999986      65.279999999999987
   306   1      8.1599999999999895      48.959999999999987      69.359999999999985
   307   1      8.1599999999999895      50.999999999999986      71.399999999999977
   308   1      10.199999999999989      48.959999999999987      71.399999999999977
   309   1      10.199999999999989      50.999999999999986      69.359999999999985
   310   1      10.199999999999989      48.959999999999987       75.47999999999999
   311   1      10.199999999999989      50.999999999999986      73.439999999999984
   312   1      10.199999999999989      50.999999999999986      77.519999999999968
   313   1      10.199999999999989      53.039999999999992      26.519999999999989
   314   1      10.199999999999989      53.039999999999992      30.599999999999987
   315   1      10.199999999999989      55.079999999999984      28.559999999999988
   316   1      8.1599999999999895      53.039999999999992      32.639999999999986
   317   1      8.1599999999999895      55.079999999999984      34.679999999999986
   318   1      10.199999999999989      53.039999999999992      34.679999999999986
   319   1      10.199999999999989      55.079999999999984      32.639999999999986
   320   1      8.1599999999999895      53.039999999999992      36.719999999999985
   321   1      8.1599999999999895      55.079999999999984      38.759999999999984
   322   1      10.199999999999989      53.039999999999992      38.759999999999984
   323   1      10.199999999999989      55.079999999999984      36.719999999999985
   324   1      8.1599999999999895      53.039999999999992       40.79999999999999
   325   1      8.1599999999999895      55.079999999999984      42.839999999999989
   326   1      10.199999999999989      53.039999999999992      42.839999999999989
   327   1      10.199999999999989      55.079999999999984       40.79999999999999
   328   1      8.1599999999999895      53.039999999999992      44.879999999999988
   329   1      8.1599999999999895      55.079999999999984      46.919999999999987
   330   1      10.199999999999989      53.039999999999992      46.919999999999987
   331   1      10.199999999999989      55.079999999999984      44.879999999999988
   332   1      8.1599999999999895      53.039999999999992      48.959999999999987
   333   1      8.1599999999999895      55.079999999999984      50.999999999999986
   334   1      10.199999999999989      53.039999999999992      50.999999999999986
   335   1      10.199999999999989      55.079999999999984      48.959999999999987
   336   1      8.1599999999999895      53.039999999999992      53.039999999999992
   337   1      8.1599999999999895      55.079999999999984      55.079999999999984
   338   1      10.199999999999989      53.039999999999992      55.079999999999984
   339   1      10.199999999999989      55.079999999999984      53.039999999999992
   340   1      8.1599999999999895      53.039999999999992       57.11999999999999
   341   1      8.1599999999999895      55.079999999999984      59.159999999999982
   342   1      10.199999999999989      53.039999999999992      59.159999999999982
   343   1      10.199999999999989      55.079999999999984       57.11999999999999
   344   1      8.1599999999999895      53.039999999999992      61.199999999999989
   345   1      8.1599999999999895      55.079999999999984      63.239999999999988
   346   1      10.199999999999989      53.039999999999992      63.239999999999988
   347   1      10.199999999999989      55.079999999999984      61.199999999999989
   348   1      8.1599999999999895      53.039999999999992      65.279999999999987
   349   1      8.1599999999999895      55.079999999999984      67.319999999999993
   350   1      10.199999999999989      53.039999999999992      67.319999999999993
   351   1      10.199999999999989      55.079999999999984      65.279999999999987
   352   1      8.1599999999999895      53.039999999999992      69.359999999999985
   353   1      8.1599999999999895      55.079999999999984      71.399999999999977
   354   1      10.199999999999989      53.039999999999992      71.399999999999977
   355   1      10.199999999999989      55.079999999999984      69.359999999999985
   356   1      8.1599999999999895      53.039999999999992      73.439999999999984
   357   1      10.199999999999989      53.039999999999992       75.47999999999999
   358   1      10.199999999999989      55.079999999999984      73.439999999999984