model_files/Ni/Ni_30000/Ni_520/data.Ni_520_fcc_30029 (written by ASE) 

30029 	 atoms 
1  atom types
0.0                      84  xlo xhi
0.0                      84  ylo yhi
0.0                      84  zlo zhi


Atoms 

     1   1      1.7600000000000049      36.960000000000001      38.720000000000006
     2   1      1.7600000000000049      36.960000000000001      42.240000000000002
     3   1      1.7600000000000049      36.960000000000001      45.760000000000005
     4   1      1.7600000000000049      38.720000000000006      36.960000000000001
     5   1  7.1054273576010019e-15      40.480000000000004      40.480000000000004
     6   1      1.7600000000000049      38.720000000000006      40.480000000000004
     7   1      1.7600000000000049      40.480000000000004      38.720000000000006
     8   1  7.1054273576010019e-15      40.480000000000004      43.999999999999993
     9   1      1.7600000000000049      38.720000000000006      43.999999999999993
    10   1      1.7600000000000049      40.480000000000004      42.240000000000002
    11   1      1.7600000000000049      38.720000000000006      47.520000000000003
    12   1      1.7600000000000049      40.480000000000004      45.760000000000005
    13   1      1.7600000000000049      42.240000000000002      36.960000000000001
    14   1  7.1054273576010019e-15      43.999999999999993      40.480000000000004
    15   1      1.7600000000000049      42.240000000000002      40.480000000000004
    16   1      1.7600000000000049      43.999999999999993      38.720000000000006
    17   1  7.1054273576010019e-15      42.240000000000002      42.240000000000002
    18   1  7.1054273576010019e-15      43.999999999999993      43.999999999999993
    19   1      1.7600000000000049      42.240000000000002      43.999999999999993
    20   1      1.7600000000000049      43.999999999999993      42.240000000000002
    21   1      1.7600000000000049      42.240000000000002      47.520000000000003
    22   1      1.7600000000000049      43.999999999999993      45.760000000000005
    23   1      1.7600000000000049      45.760000000000005      36.960000000000001
    24   1      1.7600000000000049      45.760000000000005      40.480000000000004
    25   1      1.7600000000000049      47.520000000000003      38.720000000000006
    26   1      1.7600000000000049      45.760000000000005      43.999999999999993
    27   1      1.7600000000000049      47.520000000000003      42.240000000000002
    28   1      1.7600000000000049      45.760000000000005      47.520000000000003
    29   1      1.7600000000000049      47.520000000000003      45.760000000000005
    30   1      5.2800000000000082      28.160000000000004      29.919999999999998
    31   1      5.2800000000000082      29.919999999999998      28.160000000000004
    32   1      5.2800000000000082      28.160000000000004      33.440000000000005
    33   1      5.2800000000000082      29.919999999999998      31.680000000000007
    34   1      5.2800000000000082      28.160000000000004      36.960000000000001
    35   1      5.2800000000000082      29.919999999999998      35.200000000000003
    36   1      5.2800000000000082      28.160000000000004      40.480000000000004
    37   1      5.2800000000000082      29.919999999999998      38.720000000000006
    38   1      5.2800000000000082      28.160000000000004      43.999999999999993
    39   1      5.2800000000000082      29.919999999999998      42.240000000000002
    40   1      5.2800000000000082      28.160000000000004      47.520000000000003
    41   1      5.2800000000000082      29.919999999999998      45.760000000000005
    42   1      5.2800000000000082      28.160000000000004      51.039999999999999
    43   1      5.2800000000000082      29.919999999999998      49.280000000000001
    44   1      5.2800000000000082      28.160000000000004      54.559999999999995
    45   1      5.2800000000000082      29.919999999999998      52.799999999999997
    46   1      5.2800000000000082      29.919999999999998      56.320000000000007
    47   1      5.2800000000000082      31.680000000000007      29.919999999999998
    48   1      5.2800000000000082      33.440000000000005      28.160000000000004
    49   1      3.5200000000000027      31.680000000000007      31.680000000000007
    50   1      3.5200000000000027      33.440000000000005      33.440000000000005
    51   1      5.2800000000000082      31.680000000000007      33.440000000000005
    52   1      5.2800000000000082      33.440000000000005      31.680000000000007
    53   1      3.5200000000000027      31.680000000000007      35.200000000000003
    54   1      3.5200000000000027      33.440000000000005      36.960000000000001
    55   1      5.2800000000000082      31.680000000000007      36.960000000000001
    56   1      5.2800000000000082      33.440000000000005      35.200000000000003
    57   1      3.5200000000000027      31.680000000000007      38.720000000000006
    58   1      3.5200000000000027      33.440000000000005      40.480000000000004
    59   1      5.2800000000000082      31.680000000000007      40.480000000000004
    60   1      5.2800000000000082      33.440000000000005      38.720000000000006
    61   1      3.5200000000000027      31.680000000000007      42.240000000000002
    62   1      3.5200000000000027      33.440000000000005      43.999999999999993
    63   1      5.2800000000000082      31.680000000000007      43.999999999999993
    64   1      5.2800000000000082      33.440000000000005      42.240000000000002
    65   1      3.5200000000000027      31.680000000000007      45.760000000000005
    66   1      3.5200000000000027      33.440000000000005      47.520000000000003
    67   1      5.2800000000000082      31.680000000000007      47.520000000000003
    68   1      5.2800000000000082      33.440000000000005      45.760000000000005
    69   1      3.5200000000000027      31.680000000000007      49.280000000000001
    70   1      3.5200000000000027      33.440000000000005      51.039999999999999
    71   1      5.2800000000000082      31.680000000000007      51.039999999999999
    72   1      5.2800000000000082      33.440000000000005      49.280000000000001
    73   1      3.5200000000000027      31.680000000000007      52.799999999999997
    74   1      5.2800000000000082      31.680000000000007      54.559999999999995
    75   1      5.2800000000000082      33.440000000000005      52.799999999999997
    76   1      5.2800000000000082      33.440000000000005      56.320000000000007
    77   1      5.2800000000000082      35.200000000000003      29.919999999999998
    78   1      5.2800000000000082      36.960000000000001      28.160000000000004
    79   1      3.5200000000000027      35.200000000000003      31.680000000000007
    80   1      3.5200000000000027      36.960000000000001      33.440000000000005
    81   1      5.2800000000000082      35.200000000000003      33.440000000000005
    82   1      5.2800000000000082      36.960000000000001      31.680000000000007
    83   1      3.5200000000000027      35.200000000000003      35.200000000000003
    84   1      3.5200000000000027      36.960000000000001      36.960000000000001
    85   1      5.2800000000000082      35.200000000000003      36.960000000000001
    86   1      5.2800000000000082      36.960000000000001      35.200000000000003
    87   1      3.5200000000000027      35.200000000000003      38.720000000000006
    88   1      3.5200000000000027      36.960000000000001      40.480000000000004
    89   1      5.2800000000000082      35.200000000000003      40.480000000000004
    90   1      5.2800000000000082      36.960000000000001      38.720000000000006
    91   1      3.5200000000000027      35.200000000000003      42.240000000000002
    92   1      3.5200000000000027      36.960000000000001      43.999999999999993
    93   1      5.2800000000000082      35.200000000000003      43.999999999999993
    94   1      5.2800000000000082      36.960000000000001      42.240000000000002
    95   1      3.5200000000000027      35.200000000000003      45.760000000000005
    96   1      3.5200000000000027      36.960000000000001      47.520000000000003
    97   1      5.2800000000000082      35.200000000000003      47.520000000000003
    98   1      5.2800000000000082      36.960000000000001      45.760000000000005
    99   1      3.5200000000000027      35.200000000000003      49.280000000000001
   100   1      3.5200000000000027      36.960000000000001      51.039999999999999
   101   1      5.2800000000000082      35.200000000000003      51.039999999999999
   102   1      5.2800000000000082      36.960000000000001      49.280000000000001
   103   1      3.5200000000000027      35.200000000000003      52.799999999999997
   104   1      5.2800000000000082      35.200000000000003      54.559999999999995
   105   1      5.2800000000000082      36.960000000000001      52.799999999999997
   106   1      5.2800000000000082      36.960000000000001      56.320000000000007
   107   1      5.2800000000000082      38.720000000000006      29.919999999999998
   108   1      5.2800000000000082      40.480000000000004      28.160000000000004
   109   1      3.5200000000000027      38.720000000000006      31.680000000000007
   110   1      3.5200000000000027      40.480000000000004      33.440000000000005
   111   1      5.2800000000000082      38.720000000000006      33.440000000000005
   112   1      5.2800000000000082      40.480000000000004      31.680000000000007
   113   1      3.5200000000000027      38.720000000000006      35.200000000000003
   114   1      3.5200000000000027      40.480000000000004      36.960000000000001
   115   1      5.2800000000000082      38.720000000000006      36.960000000000001
   116   1      5.2800000000000082      40.480000000000004      35.200000000000003
   117   1      3.5200000000000027      38.720000000000006      38.720000000000006
   118   1      3.5200000000000027      40.480000000000004      40.480000000000004
   119   1      5.2800000000000082      38.720000000000006      40.480000000000004
   120   1      5.2800000000000082      40.480000000000004      38.720000000000006
   121   1      3.5200000000000027      38.720000000000006      42.240000000000002
   122   1      3.5200000000000027      40.480000000000004      43.999999999999993
   123   1      5.2800000000000082      38.720000000000006      43.999999999999993
   124   1      5.2800000000000082      40.480000000000004      42.240000000000002
   125   1      3.5200000000000027      38.720000000000006      45.760000000000005
   126   1      3.5200000000000027      40.480000000000004      47.520000000000003
   127   1      5.2800000000000082      38.720000000000006      47.520000000000003
   128   1      5.2800000000000082      40.480000000000004      45.760000000000005
   129   1      3.5200000000000027      38.720000000000006      49.280000000000001
   130   1      3.5200000000000027      40.480000000000004      51.039999999999999
   131   1      5.2800000000000082      38.720000000000006      51.039999999999999
   132   1      5.2800000000000082      40.480000000000004      49.280000000000001
   133   1      3.5200000000000027      38.720000000000006      52.799999999999997
   134   1      5.2800000000000082      38.720000000000006      54.559999999999995
   135   1      5.2800000000000082      40.480000000000004      52.799999999999997
   136   1      5.2800000000000082      40.480000000000004      56.320000000000007
   137   1      5.2800000000000082      42.240000000000002      29.919999999999998
   138   1      5.2800000000000082      43.999999999999993      28.160000000000004
   139   1      3.5200000000000027      42.240000000000002      31.680000000000007
   140   1      3.5200000000000027      43.999999999999993      33.440000000000005
   141   1      5.2800000000000082      42.240000000000002      33.440000000000005
   142   1      5.2800000000000082      43.999999999999993      31.680000000000007
   143   1      3.5200000000000027      42.240000000000002      35.200000000000003
   144   1      3.5200000000000027      43.999999999999993      36.960000000000001
   145   1      5.2800000000000082      42.240000000000002      36.960000000000001
   146   1      5.2800000000000082      43.999999999999993      35.200000000000003
   147   1      3.5200000000000027      42.240000000000002      38.720000000000006
   148   1      3.5200000000000027      43.999999999999993      40.480000000000004
   149   1      5.2800000000000082      42.240000000000002      40.480000000000004
   150   1      5.2800000000000082      43.999999999999993      38.720000000000006
   151   1      3.5200000000000027      42.240000000000002      42.240000000000002
   152   1      3.5200000000000027      43.999999999999993      43.999999999999993
   153   1      5.2800000000000082      42.240000000000002      43.999999999999993
   154   1      5.2800000000000082      43.999999999999993      42.240000000000002
   155   1      3.5200000000000027      42.240000000000002      45.760000000000005
   156   1      3.5200000000000027      43.999999999999993      47.520000000000003
   157   1      5.2800000000000082      42.240000000000002      47.520000000000003
   158   1      5.2800000000000082      43.999999999999993      45.760000000000005
   159   1      3.5200000000000027      42.240000000000002      49.280000000000001
   160   1      3.5200000000000027      43.999999999999993      51.039999999999999
   161   1      5.2800000000000082      42.240000000000002      51.039999999999999
   162   1      5.2800000000000082      43.999999999999993      49.280000000000001
   163   1      3.5200000000000027      42.240000000000002      52.799999999999997
   164   1      5.2800000000000082      42.240000000000002      54.559999999999995
   165   1      5.2800000000000082      43.999999999999993      52.799999999999997
   166   1      5.2800000000000082      43.999999999999993      56.320000000000007
   167   1      5.2800000000000082      45.760000000000005      29.919999999999998
   168   1      5.2800000000000082      47.520000000000003      28.160000000000004
   169   1      3.5200000000000027      45.760000000000005      31.680000000000007
   170   1      3.5200000000000027      47.520000000000003      33.440000000000005
   171   1      5.2800000000000082      45.760000000000005      33.440000000000005
   172   1      5.2800000000000082      47.520000000000003      31.680000000000007
   173   1      3.5200000000000027      45.760000000000005      35.200000000000003
   174   1      3.5200000000000027      47.520000000000003      36.960000000000001
   175   1      5.2800000000000082      45.760000000000005      36.960000000000001
   176   1      5.2800000000000082      47.520000000000003      35.200000000000003
   177   1      3.5200000000000027      45.760000000000005      38.720000000000006
   178   1      3.5200000000000027      47.520000000000003      40.480000000000004
   179   1      5.2800000000000082      45.760000000000005      40.480000000000004
   180   1      5.2800000000000082      47.520000000000003      38.720000000000006
   181   1      3.5200000000000027      45.760000000000005      42.240000000000002
   182   1      3.5200000000000027      47.520000000000003      43.999999999999993
   183   1      5.2800000000000082      45.760000000000005      43.999999999999993
   184   1      5.2800000000000082      47.520000000000003      42.240000000000002
   185   1      3.5200000000000027      45.760000000000005      45.760000000000005
   186   1      3.5200000000000027      47.520000000000003      47.520000000000003
   187   1      5.2800000000000082      45.760000000000005      47.520000000000003
   188   1      5.2800000000000082      47.520000000000003      45.760000000000005
   189   1      3.5200000000000027      45.760000000000005      49.280000000000001
   190   1      3.5200000000000027      47.520000000000003      51.039999999999999
   191   1      5.2800000000000082      45.760000000000005      51.039999999999999
   192   1      5.2800000000000082      47.520000000000003      49.280000000000001
   193   1      3.5200000000000027      45.760000000000005      52.799999999999997
   194   1      5.2800000000000082      45.760000000000005      54.559999999999995
   195   1      5.2800000000000082      47.520000000000003      52.799999999999997
   196   1      5.2800000000000082      47.520000000000003      56.320000000000007
   197   1      5.2800000000000082      49.280000000000001      29.919999999999998
   198   1      5.2800000000000082      51.039999999999999      28.160000000000004
   199   1      3.5200000000000027      49.280000000000001      31.680000000000007
   200   1      3.5200000000000027      51.039999999999999      33.440000000000005
   201   1      5.2800000000000082      49.280000000000001      33.440000000000005
   202   1      5.2800000000000082      51.039999999999999      31.680000000000007
   203   1      3.5200000000000027      49.280000000000001      35.200000000000003
   204   1      3.5200000000000027      51.039999999999999      36.960000000000001
   205   1      5.2800000000000082      49.280000000000001      36.960000000000001
   206   1      5.2800000000000082      51.039999999999999      35.200000000000003
   207   1      3.5200000000000027      49.280000000000001      38.720000000000006
   208   1      3.5200000000000027      51.039999999999999      40.480000000000004
   209   1      5.2800000000000082      49.280000000000001      40.480000000000004
   210   1      5.2800000000000082      51.039999999999999      38.720000000000006
   211   1      3.5200000000000027      49.280000000000001      42.240000000000002
   212   1      3.5200000000000027      51.039999999999999      43.999999999999993
   213   1      5.2800000000000082      49.280000000000001      43.999999999999993
   214   1      5.2800000000000082      51.039999999999999      42.240000000000002
   215   1      3.5200000000000027      49.280000000000001      45.760000000000005
   216   1      3.5200000000000027      51.039999999999999      47.520000000000003
   217   1      5.2800000000000082      49.280000000000001      47.520000000000003
   218   1      5.2800000000000082      51.039999999999999      45.760000000000005
   219   1      3.5200000000000027      49.280000000000001      49.280000000000001
   220   1      3.5200000000000027      51.039999999999999      51.039999999999999
   221   1      5.2800000000000082      49.280000000000001      51.039999999999999
   222   1      5.2800000000000082      51.039999999999999      49.280000000000001
   223   1      3.5200000000000027      49.280000000000001      52.799999999999997
   224   1      5.2800000000000082      49.280000000000001      54.559999999999995
   225   1      5.2800000000000082      51.039999999999999      52.799999999999997
   226   1      5.2800000000000082      51.039999999999999      56.320000000000007
   227   1      5.2800000000000082      52.799999999999997      29.919999999999998
   228   1      5.2800000000000082      54.559999999999995      28.160000000000004
   229   1      3.5200000000000027      52.799999999999997      31.680000000000007
   230   1      5.2800000000000082      52.799999999999997      33.440000000000005
   231   1      5.2800000000000082      54.559999999999995      31.680000000000007
   232   1      3.5200000000000027      52.799999999999997      35.200000000000003
   233   1      5.2800000000000082      52.799999999999997      36.960000000000001
   234   1      5.2800000000000082      54.559999999999995      35.200000000000003
   235   1      3.5200000000000027      52.799999999999997      38.720000000000006
   236   1      5.2800000000000082      52.799999999999997      40.480000000000004
   237   1      5.2800000000000082      54.559999999999995      38.720000000000006
   238   1      3.5200000000000027      52.799999999999997      42.240000000000002
   239   1      5.2800000000000082      52.799999999999997      43.999999999999993
   240   1      5.2800000000000082      54.559999999999995      42.240000000000002
   241   1      3.5200000000000027      52.799999999999997      45.760000000000005
   242   1      5.2800000000000082      52.799999999999997      47.520000000000003
   243   1      5.2800000000000082      54.559999999999995      45.760000000000005
   244   1      3.5200000000000027      52.799999999999997      49.280000000000001
   245   1      5.2800000000000082      52.799999999999997      51.039999999999999
   246   1      5.2800000000000082      54.559999999999995      49.280000000000001
   247   1      3.5200000000000027      52.799999999999997      52.799999999999997
   248   1      5.2800000000000082      52.799999999999997      54.559999999999995
   249   1      5.2800000000000082      54.559999999999995      52.799999999999997
   250   1      5.2800000000000082      54.559999999999995      56.320000000000007
   251   1      5.2800000000000082      56.320000000000007      29.919999999999998
   252   1      5.2800000000000082      56.320000000000007      33.440000000000005
   253   1      5.2800000000000082      56.320000000000007      36.960000000000001
   254   1      5.2800000000000082      56.320000000000007      40.480000000000004
   255   1      5.2800000000000082      56.320000000000007      43.999999999999993
   256   1      5.2800000000000082      56.320000000000007      47.520000000000003
   257   1      5.2800000000000082      56.320000000000007      51.039999999999999
   258   1      5.2800000000000082      56.320000000000007      54.559999999999995
   259   1      8.8000000000000043      19.360000000000003      21.120000000000001
   260   1      8.8000000000000043      19.360000000000003      24.640000000000004
   261   1      8.8000000000000043      19.360000000000003      28.160000000000004
   262   1      8.8000000000000043      19.360000000000003      31.680000000000007
   263   1      8.8000000000000043      19.360000000000003      35.200000000000003
   264   1      8.8000000000000043      19.360000000000003      38.720000000000006
   265   1      8.8000000000000043      19.360000000000003      42.240000000000002
   266   1      8.8000000000000043      19.360000000000003      45.760000000000005
   267   1      8.8000000000000043      19.360000000000003      49.280000000000001
   268   1      8.8000000000000043      19.360000000000003      52.799999999999997
   269   1      8.8000000000000043      19.360000000000003      56.320000000000007
   270   1      8.8000000000000043      19.360000000000003      59.839999999999996
   271   1      8.8000000000000043      19.360000000000003      63.359999999999992
   272   1      8.8000000000000043      21.120000000000001      19.360000000000003
   273   1      7.0400000000000054      22.880000000000006      22.880000000000006
   274   1      8.8000000000000043      21.120000000000001      22.880000000000006
   275   1      8.8000000000000043      22.880000000000006      21.120000000000001
   276   1      7.0400000000000054      22.880000000000006      26.400000000000006
   277   1      8.8000000000000043      21.120000000000001      26.400000000000006
   278   1      8.8000000000000043      22.880000000000006      24.640000000000004
   279   1      7.0400000000000054      22.880000000000006      29.919999999999998
   280   1      8.8000000000000043      21.120000000000001      29.919999999999998
   281   1      8.8000000000000043      22.880000000000006      28.160000000000004
   282   1      7.0400000000000054      22.880000000000006      33.440000000000005
   283   1      8.8000000000000043      21.120000000000001      33.440000000000005
   284   1      8.8000000000000043      22.880000000000006      31.680000000000007
   285   1      7.0400000000000054      22.880000000000006      36.960000000000001
   286   1      8.8000000000000043      21.120000000000001      36.960000000000001
   287   1      8.8000000000000043      22.880000000000006      35.200000000000003
   288   1      7.0400000000000054      22.880000000000006      40.480000000000004
   289   1      8.8000000000000043      21.120000000000001      40.480000000000004
   290   1      8.8000000000000043      22.880000000000006      38.720000000000006
   291   1      7.0400000000000054      22.880000000000006      43.999999999999993
   292   1      8.8000000000000043      21.120000000000001      43.999999999999993
   293   1      8.8000000000000043      22.880000000000006      42.240000000000002
   294   1      7.0400000000000054      22.880000000000006      47.520000000000003
   295   1      8.8000000000000043      21.120000000000001      47.520000000000003
   296   1      8.8000000000000043      22.880000000000006      45.760000000000005
   297   1      7.0400000000000054      22.880000000000006      51.039999999999999
   298   1      8.8000000000000043      21.120000000000001      51.039999999999999
   299   1      8.8000000000000043      22.880000000000006      49.280000000000001
   300   1      7.0400000000000054      22.880000000000006      54.559999999999995
   301   1      8.8000000000000043      21.120000000000001      54.559999999999995
   302   1      8.8000000000000043      22.880000000000006      52.799999999999997
   303   1      7.0400000000000054      22.880000000000006      58.080000000000005
   304   1      8.8000000000000043      21.120000000000001      58.080000000000005
   305   1      8.8000000000000043      22.880000000000006      56.320000000000007
   306   1      7.0400000000000054      22.880000000000006      61.600000000000009
   307   1      8.8000000000000043      21.120000000000001      61.600000000000009
   308   1      8.8000000000000043      22.880000000000006      59.839999999999996
   309   1      8.8000000000000043      21.120000000000001      65.120000000000005
   310   1      8.8000000000000043      22.880000000000006      63.359999999999992
   311   1      8.8000000000000043      24.640000000000004      19.360000000000003
   312   1      7.0400000000000054      26.400000000000006      22.880000000000006
   313   1      8.8000000000000043      24.640000000000004      22.880000000000006
   314   1      8.8000000000000043      26.400000000000006      21.120000000000001
   315   1      7.0400000000000054      24.640000000000004      24.640000000000004
   316   1      7.0400000000000054      26.400000000000006      26.400000000000006
   317   1      8.8000000000000043      24.640000000000004      26.400000000000006
   318   1      8.8000000000000043      26.400000000000006      24.640000000000004
   319   1      7.0400000000000054      24.640000000000004      28.160000000000004
   320   1      7.0400000000000054      26.400000000000006      29.919999999999998
   321   1      8.8000000000000043      24.640000000000004      29.919999999999998
   322   1      8.8000000000000043      26.400000000000006      28.160000000000004
   323   1      7.0400000000000054      24.640000000000004      31.680000000000007
   324   1      7.0400000000000054      26.400000000000006      33.440000000000005
   325   1      8.8000000000000043      24.640000000000004      33.440000000000005
   326   1      8.8000000000000043      26.400000000000006      31.680000000000007
   327   1      7.0400000000000054      24.640000000000004      35.200000000000003
   328   1      7.0400000000000054      26.400000000000006      36.960000000000001
   329   1      8.8000000000000043      24.640000000000004      36.960000000000001
   330   1      8.8000000000000043      26.400000000000006      35.200000000000003
   331   1      7.0400000000000054      24.640000000000004      38.720000000000006
   332   1      7.0400000000000054      26.400000000000006      40.480000000000004
   333   1      8.8000000000000043      24.640000000000004      40.480000000000004
   334   1      8.8000000000000043      26.400000000000006      38.720000000000006
   335   1      7.0400000000000054      24.640000000000004      42.240000000000002
   336   1      7.0400000000000054      26.400000000000006      43.999999999999993
   337   1      8.8000000000000043      24.640000000000004      43.999999999999993
   338   1      8.8000000000000043      26.400000000000006      42.240000000000002
   339   1      7.0400000000000054      24.640000000000004      45.760000000000005
   340   1      7.0400000000000054      26.400000000000006      47.520000000000003
   341   1      8.8000000000000043      24.640000000000004      47.520000000000003
   342   1      8.8000000000000043      26.400000000000006      45.760000000000005
   343   1      7.0400000000000054      24.640000000000004      49.280000000000001
   344   1      7.0400000000000054      26.400000000000006      51.039999999999999
   345   1      8.8000000000000043      24.640000000000004      51.039999999999999
   346   1      8.8000000000000043      26.400000000000006      49.280000000000001
   347   1      7.0400000000000054      24.640000000000004      52.799999999999997
   348   1      7.0400000000000054      26.400000000000006      54.559999999999995
   349   1      8.8000000000000043      24.640000000000004      54.559999999999995
   350   1      8.8000000000000043      26.400000000000006      52.799999999999997
   351   1      7.0400000000000054      24.640000000000004      56.320000000000007
   352   1      7.0400000000000054      26.400000000000006      58.080000000000005
   353   1      8.8000000000000043      24.640000000000004      58.080000000000005
   354   1      8.8000000000000043      26.400000000000006      56.320000000000007
   355   1      7.0400000000000054      24.640000000000004      59.839999999999996
   356   1      7.0400000000000054      26.400000000000006      61.600000000000009
   357   1      8.8000000000000043      24.640000000000004      61.600000000000009
   358   1      8.8000000000000043      26.400000000000006      59.839999999999996