model_files/Pt/Pt_10000/Pt_110/data.Pt_110_fcc_9941 (written by ASE) 

9941 	 atoms 
1  atom types
0.0                      78  xlo xhi
0.0                      78  ylo yhi
0.0                      78  zlo zhi


Atoms 

     1   1                       0      37.240000000000002      37.240000000000002
     2   1      1.9600000000000009      35.280000000000001      37.240000000000002
     3   1      1.9600000000000009      37.240000000000002      35.280000000000001
     4   1                       0      37.240000000000002      41.159999999999997
     5   1      1.9600000000000009      35.280000000000001      41.159999999999997
     6   1      1.9600000000000009      37.240000000000002      39.199999999999989
     7   1      1.9600000000000009      37.240000000000002      43.119999999999997
     8   1                       0      41.159999999999997      37.240000000000002
     9   1      1.9600000000000009      39.199999999999989      37.240000000000002
    10   1      1.9600000000000009      41.159999999999997      35.280000000000001
    11   1                       0      39.199999999999989      39.199999999999989
    12   1                       0      41.159999999999997      41.159999999999997
    13   1      1.9600000000000009      39.199999999999989      41.159999999999997
    14   1      1.9600000000000009      41.159999999999997      39.199999999999989
    15   1      1.9600000000000009      41.159999999999997      43.119999999999997
    16   1      1.9600000000000009      43.119999999999997      37.240000000000002
    17   1      1.9600000000000009      43.119999999999997      41.159999999999997
    18   1      3.9199999999999946                   33.32                   33.32
    19   1      5.8800000000000017      31.359999999999999                   33.32
    20   1      5.8800000000000017                   33.32      31.359999999999999
    21   1      3.9199999999999946                   33.32      37.240000000000002
    22   1      5.8800000000000017      31.359999999999999      37.240000000000002
    23   1      5.8800000000000017                   33.32      35.280000000000001
    24   1      3.9199999999999946                   33.32      41.159999999999997
    25   1      5.8800000000000017      31.359999999999999      41.159999999999997
    26   1      5.8800000000000017                   33.32      39.199999999999989
    27   1      3.9199999999999946                   33.32      45.079999999999998
    28   1      5.8800000000000017      31.359999999999999      45.079999999999998
    29   1      5.8800000000000017                   33.32      43.119999999999997
    30   1      5.8800000000000017                   33.32      47.039999999999999
    31   1      3.9199999999999946      37.240000000000002                   33.32
    32   1      5.8800000000000017      35.280000000000001                   33.32
    33   1      5.8800000000000017      37.240000000000002      31.359999999999999
    34   1      3.9199999999999946      35.280000000000001      35.280000000000001
    35   1      3.9199999999999946      37.240000000000002      37.240000000000002
    36   1      5.8800000000000017      35.280000000000001      37.240000000000002
    37   1      5.8800000000000017      37.240000000000002      35.280000000000001
    38   1      3.9199999999999946      35.280000000000001      39.199999999999989
    39   1      3.9199999999999946      37.240000000000002      41.159999999999997
    40   1      5.8800000000000017      35.280000000000001      41.159999999999997
    41   1      5.8800000000000017      37.240000000000002      39.199999999999989
    42   1      3.9199999999999946      35.280000000000001      43.119999999999997
    43   1      3.9199999999999946      37.240000000000002      45.079999999999998
    44   1      5.8800000000000017      35.280000000000001      45.079999999999998
    45   1      5.8800000000000017      37.240000000000002      43.119999999999997
    46   1      5.8800000000000017      37.240000000000002      47.039999999999999
    47   1      3.9199999999999946      41.159999999999997                   33.32
    48   1      5.8800000000000017      39.199999999999989                   33.32
    49   1      5.8800000000000017      41.159999999999997      31.359999999999999
    50   1      3.9199999999999946      39.199999999999989      35.280000000000001
    51   1      3.9199999999999946      41.159999999999997      37.240000000000002
    52   1      5.8800000000000017      39.199999999999989      37.240000000000002
    53   1      5.8800000000000017      41.159999999999997      35.280000000000001
    54   1      3.9199999999999946      39.199999999999989      39.199999999999989
    55   1      3.9199999999999946      41.159999999999997      41.159999999999997
    56   1      5.8800000000000017      39.199999999999989      41.159999999999997
    57   1      5.8800000000000017      41.159999999999997      39.199999999999989
    58   1      3.9199999999999946      39.199999999999989      43.119999999999997
    59   1      3.9199999999999946      41.159999999999997      45.079999999999998
    60   1      5.8800000000000017      39.199999999999989      45.079999999999998
    61   1      5.8800000000000017      41.159999999999997      43.119999999999997
    62   1      5.8800000000000017      41.159999999999997      47.039999999999999
    63   1      3.9199999999999946      45.079999999999998                   33.32
    64   1      5.8800000000000017      43.119999999999997                   33.32
    65   1      5.8800000000000017      45.079999999999998      31.359999999999999
    66   1      3.9199999999999946      43.119999999999997      35.280000000000001
    67   1      3.9199999999999946      45.079999999999998      37.240000000000002
    68   1      5.8800000000000017      43.119999999999997      37.240000000000002
    69   1      5.8800000000000017      45.079999999999998      35.280000000000001
    70   1      3.9199999999999946      43.119999999999997      39.199999999999989
    71   1      3.9199999999999946      45.079999999999998      41.159999999999997
    72   1      5.8800000000000017      43.119999999999997      41.159999999999997
    73   1      5.8800000000000017      45.079999999999998      39.199999999999989
    74   1      3.9199999999999946      43.119999999999997      43.119999999999997
    75   1      3.9199999999999946      45.079999999999998      45.079999999999998
    76   1      5.8800000000000017      43.119999999999997      45.079999999999998
    77   1      5.8800000000000017      45.079999999999998      43.119999999999997
    78   1      5.8800000000000017      45.079999999999998      47.039999999999999
    79   1      5.8800000000000017      47.039999999999999                   33.32
    80   1      5.8800000000000017      47.039999999999999      37.240000000000002
    81   1      5.8800000000000017      47.039999999999999      41.159999999999997
    82   1      5.8800000000000017      47.039999999999999      45.079999999999998
    83   1      7.8399999999999954      29.399999999999999      29.399999999999999
    84   1      9.7999999999999972      27.439999999999994      29.399999999999999
    85   1      9.7999999999999972      29.399999999999999      27.439999999999994
    86   1      7.8399999999999954      29.399999999999999                   33.32
    87   1      9.7999999999999972      27.439999999999994                   33.32
    88   1      9.7999999999999972      29.399999999999999      31.359999999999999
    89   1      7.8399999999999954      29.399999999999999      37.240000000000002
    90   1      9.7999999999999972      27.439999999999994      37.240000000000002
    91   1      9.7999999999999972      29.399999999999999      35.280000000000001
    92   1      7.8399999999999954      29.399999999999999      41.159999999999997
    93   1      9.7999999999999972      27.439999999999994      41.159999999999997
    94   1      9.7999999999999972      29.399999999999999      39.199999999999989
    95   1      7.8399999999999954      29.399999999999999      45.079999999999998
    96   1      9.7999999999999972      27.439999999999994      45.079999999999998
    97   1      9.7999999999999972      29.399999999999999      43.119999999999997
    98   1      7.8399999999999954      29.399999999999999                      49
    99   1      9.7999999999999972      27.439999999999994                      49
   100   1      9.7999999999999972      29.399999999999999      47.039999999999999
   101   1      9.7999999999999972      29.399999999999999      50.959999999999994
   102   1      7.8399999999999954                   33.32      29.399999999999999
   103   1      9.7999999999999972      31.359999999999999      29.399999999999999
   104   1      9.7999999999999972                   33.32      27.439999999999994
   105   1      7.8399999999999954      31.359999999999999      31.359999999999999
   106   1      7.8399999999999954                   33.32                   33.32
   107   1      9.7999999999999972      31.359999999999999                   33.32
   108   1      9.7999999999999972                   33.32      31.359999999999999
   109   1      7.8399999999999954      31.359999999999999      35.280000000000001
   110   1      7.8399999999999954                   33.32      37.240000000000002
   111   1      9.7999999999999972      31.359999999999999      37.240000000000002
   112   1      9.7999999999999972                   33.32      35.280000000000001
   113   1      7.8399999999999954      31.359999999999999      39.199999999999989
   114   1      7.8399999999999954                   33.32      41.159999999999997
   115   1      9.7999999999999972      31.359999999999999      41.159999999999997
   116   1      9.7999999999999972                   33.32      39.199999999999989
   117   1      7.8399999999999954      31.359999999999999      43.119999999999997
   118   1      7.8399999999999954                   33.32      45.079999999999998
   119   1      9.7999999999999972      31.359999999999999      45.079999999999998
   120   1      9.7999999999999972                   33.32      43.119999999999997
   121   1      7.8399999999999954      31.359999999999999      47.039999999999999
   122   1      7.8399999999999954                   33.32                      49
   123   1      9.7999999999999972      31.359999999999999                      49
   124   1      9.7999999999999972                   33.32      47.039999999999999
   125   1      9.7999999999999972                   33.32      50.959999999999994
   126   1      7.8399999999999954      37.240000000000002      29.399999999999999
   127   1      9.7999999999999972      35.280000000000001      29.399999999999999
   128   1      9.7999999999999972      37.240000000000002      27.439999999999994
   129   1      7.8399999999999954      35.280000000000001      31.359999999999999
   130   1      7.8399999999999954      37.240000000000002                   33.32
   131   1      9.7999999999999972      35.280000000000001                   33.32
   132   1      9.7999999999999972      37.240000000000002      31.359999999999999
   133   1      7.8399999999999954      35.280000000000001      35.280000000000001
   134   1      7.8399999999999954      37.240000000000002      37.240000000000002
   135   1      9.7999999999999972      35.280000000000001      37.240000000000002
   136   1      9.7999999999999972      37.240000000000002      35.280000000000001
   137   1      7.8399999999999954      35.280000000000001      39.199999999999989
   138   1      7.8399999999999954      37.240000000000002      41.159999999999997
   139   1      9.7999999999999972      35.280000000000001      41.159999999999997
   140   1      9.7999999999999972      37.240000000000002      39.199999999999989
   141   1      7.8399999999999954      35.280000000000001      43.119999999999997
   142   1      7.8399999999999954      37.240000000000002      45.079999999999998
   143   1      9.7999999999999972      35.280000000000001      45.079999999999998
   144   1      9.7999999999999972      37.240000000000002      43.119999999999997
   145   1      7.8399999999999954      35.280000000000001      47.039999999999999
   146   1      7.8399999999999954      37.240000000000002                      49
   147   1      9.7999999999999972      35.280000000000001                      49
   148   1      9.7999999999999972      37.240000000000002      47.039999999999999
   149   1      9.7999999999999972      37.240000000000002      50.959999999999994
   150   1      7.8399999999999954      41.159999999999997      29.399999999999999
   151   1      9.7999999999999972      39.199999999999989      29.399999999999999
   152   1      9.7999999999999972      41.159999999999997      27.439999999999994
   153   1      7.8399999999999954      39.199999999999989      31.359999999999999
   154   1      7.8399999999999954      41.159999999999997                   33.32
   155   1      9.7999999999999972      39.199999999999989                   33.32
   156   1      9.7999999999999972      41.159999999999997      31.359999999999999
   157   1      7.8399999999999954      39.199999999999989      35.280000000000001
   158   1      7.8399999999999954      41.159999999999997      37.240000000000002
   159   1      9.7999999999999972      39.199999999999989      37.240000000000002
   160   1      9.7999999999999972      41.159999999999997      35.280000000000001
   161   1      7.8399999999999954      39.199999999999989      39.199999999999989
   162   1      7.8399999999999954      41.159999999999997      41.159999999999997
   163   1      9.7999999999999972      39.199999999999989      41.159999999999997
   164   1      9.7999999999999972      41.159999999999997      39.199999999999989
   165   1      7.8399999999999954      39.199999999999989      43.119999999999997
   166   1      7.8399999999999954      41.159999999999997      45.079999999999998
   167   1      9.7999999999999972      39.199999999999989      45.079999999999998
   168   1      9.7999999999999972      41.159999999999997      43.119999999999997
   169   1      7.8399999999999954      39.199999999999989      47.039999999999999
   170   1      7.8399999999999954      41.159999999999997                      49
   171   1      9.7999999999999972      39.199999999999989                      49
   172   1      9.7999999999999972      41.159999999999997      47.039999999999999
   173   1      9.7999999999999972      41.159999999999997      50.959999999999994
   174   1      7.8399999999999954      45.079999999999998      29.399999999999999
   175   1      9.7999999999999972      43.119999999999997      29.399999999999999
   176   1      9.7999999999999972      45.079999999999998      27.439999999999994
   177   1      7.8399999999999954      43.119999999999997      31.359999999999999
   178   1      7.8399999999999954      45.079999999999998                   33.32
   179   1      9.7999999999999972      43.119999999999997                   33.32
   180   1      9.7999999999999972      45.079999999999998      31.359999999999999
   181   1      7.8399999999999954      43.119999999999997      35.280000000000001
   182   1      7.8399999999999954      45.079999999999998      37.240000000000002
   183   1      9.7999999999999972      43.119999999999997      37.240000000000002
   184   1      9.7999999999999972      45.079999999999998      35.280000000000001
   185   1      7.8399999999999954      43.119999999999997      39.199999999999989
   186   1      7.8399999999999954      45.079999999999998      41.159999999999997
   187   1      9.7999999999999972      43.119999999999997      41.159999999999997
   188   1      9.7999999999999972      45.079999999999998      39.199999999999989
   189   1      7.8399999999999954      43.119999999999997      43.119999999999997
   190   1      7.8399999999999954      45.079999999999998      45.079999999999998
   191   1      9.7999999999999972      43.119999999999997      45.079999999999998
   192   1      9.7999999999999972      45.079999999999998      43.119999999999997
   193   1      7.8399999999999954      43.119999999999997      47.039999999999999
   194   1      7.8399999999999954      45.079999999999998                      49
   195   1      9.7999999999999972      43.119999999999997                      49
   196   1      9.7999999999999972      45.079999999999998      47.039999999999999
   197   1      9.7999999999999972      45.079999999999998      50.959999999999994
   198   1      7.8399999999999954                      49      29.399999999999999
   199   1      9.7999999999999972      47.039999999999999      29.399999999999999
   200   1      9.7999999999999972                      49      27.439999999999994
   201   1      7.8399999999999954      47.039999999999999      31.359999999999999
   202   1      7.8399999999999954                      49                   33.32
   203   1      9.7999999999999972      47.039999999999999                   33.32
   204   1      9.7999999999999972                      49      31.359999999999999
   205   1      7.8399999999999954      47.039999999999999      35.280000000000001
   206   1      7.8399999999999954                      49      37.240000000000002
   207   1      9.7999999999999972      47.039999999999999      37.240000000000002
   208   1      9.7999999999999972                      49      35.280000000000001
   209   1      7.8399999999999954      47.039999999999999      39.199999999999989
   210   1      7.8399999999999954                      49      41.159999999999997
   211   1      9.7999999999999972      47.039999999999999      41.159999999999997
   212   1      9.7999999999999972                      49      39.199999999999989
   213   1      7.8399999999999954      47.039999999999999      43.119999999999997
   214   1      7.8399999999999954                      49      45.079999999999998
   215   1      9.7999999999999972      47.039999999999999      45.079999999999998
   216   1      9.7999999999999972                      49      43.119999999999997
   217   1      7.8399999999999954      47.039999999999999      47.039999999999999
   218   1      7.8399999999999954                      49                      49
   219   1      9.7999999999999972      47.039999999999999                      49
   220   1      9.7999999999999972                      49      47.039999999999999
   221   1      9.7999999999999972                      49      50.959999999999994
   222   1      9.7999999999999972      50.959999999999994      29.399999999999999
   223   1      9.7999999999999972      50.959999999999994                   33.32
   224   1      9.7999999999999972      50.959999999999994      37.240000000000002
   225   1      9.7999999999999972      50.959999999999994      41.159999999999997
   226   1      9.7999999999999972      50.959999999999994      45.079999999999998
   227   1      9.7999999999999972      50.959999999999994                      49
   228   1      11.759999999999998      25.479999999999997      25.479999999999997
   229   1      13.719999999999997      23.519999999999996      25.479999999999997
   230   1      13.719999999999997      25.479999999999997      23.519999999999996
   231   1      11.759999999999998      25.479999999999997      29.399999999999999
   232   1      13.719999999999997      23.519999999999996      29.399999999999999
   233   1      13.719999999999997      25.479999999999997      27.439999999999994
   234   1      11.759999999999998      25.479999999999997                   33.32
   235   1      13.719999999999997      23.519999999999996                   33.32
   236   1      13.719999999999997      25.479999999999997      31.359999999999999
   237   1      11.759999999999998      25.479999999999997      37.240000000000002
   238   1      13.719999999999997      23.519999999999996      37.240000000000002
   239   1      13.719999999999997      25.479999999999997      35.280000000000001
   240   1      11.759999999999998      25.479999999999997      41.159999999999997
   241   1      13.719999999999997      23.519999999999996      41.159999999999997
   242   1      13.719999999999997      25.479999999999997      39.199999999999989
   243   1      11.759999999999998      25.479999999999997      45.079999999999998
   244   1      13.719999999999997      23.519999999999996      45.079999999999998
   245   1      13.719999999999997      25.479999999999997      43.119999999999997
   246   1      11.759999999999998      25.479999999999997                      49
   247   1      13.719999999999997      23.519999999999996                      49
   248   1      13.719999999999997      25.479999999999997      47.039999999999999
   249   1      11.759999999999998      25.479999999999997      52.919999999999987
   250   1      13.719999999999997      23.519999999999996      52.919999999999987
   251   1      13.719999999999997      25.479999999999997      50.959999999999994
   252   1      13.719999999999997      25.479999999999997      54.879999999999988
   253   1      11.759999999999998      29.399999999999999      25.479999999999997
   254   1      13.719999999999997      27.439999999999994      25.479999999999997
   255   1      13.719999999999997      29.399999999999999      23.519999999999996
   256   1      11.759999999999998      27.439999999999994      27.439999999999994
   257   1      11.759999999999998      29.399999999999999      29.399999999999999
   258   1      13.719999999999997      27.439999999999994      29.399999999999999
   259   1      13.719999999999997      29.399999999999999      27.439999999999994
   260   1      11.759999999999998      27.439999999999994      31.359999999999999
   261   1      11.759999999999998      29.399999999999999                   33.32
   262   1      13.719999999999997      27.439999999999994                   33.32
   263   1      13.719999999999997      29.399999999999999      31.359999999999999
   264   1      11.759999999999998      27.439999999999994      35.280000000000001
   265   1      11.759999999999998      29.399999999999999      37.240000000000002
   266   1      13.719999999999997      27.439999999999994      37.240000000000002
   267   1      13.719999999999997      29.399999999999999      35.280000000000001
   268   1      11.759999999999998      27.439999999999994      39.199999999999989
   269   1      11.759999999999998      29.399999999999999      41.159999999999997
   270   1      13.719999999999997      27.439999999999994      41.159999999999997
   271   1      13.719999999999997      29.399999999999999      39.199999999999989
   272   1      11.759999999999998      27.439999999999994      43.119999999999997
   273   1      11.759999999999998      29.399999999999999      45.079999999999998
   274   1      13.719999999999997      27.439999999999994      45.079999999999998
   275   1      13.719999999999997      29.399999999999999      43.119999999999997
   276   1      11.759999999999998      27.439999999999994      47.039999999999999
   277   1      11.759999999999998      29.399999999999999                      49
   278   1      13.719999999999997      27.439999999999994                      49
   279   1      13.719999999999997      29.399999999999999      47.039999999999999
   280   1      11.759999999999998      27.439999999999994      50.959999999999994
   281   1      11.759999999999998      29.399999999999999      52.919999999999987
   282   1      13.719999999999997      27.439999999999994      52.919999999999987
   283   1      13.719999999999997      29.399999999999999      50.959999999999994
   284   1      13.719999999999997      29.399999999999999      54.879999999999988
   285   1      11.759999999999998                   33.32      25.479999999999997
   286   1      13.719999999999997      31.359999999999999      25.479999999999997
   287   1      13.719999999999997                   33.32      23.519999999999996
   288   1      11.759999999999998      31.359999999999999      27.439999999999994
   289   1      11.759999999999998                   33.32      29.399999999999999
   290   1      13.719999999999997      31.359999999999999      29.399999999999999
   291   1      13.719999999999997                   33.32      27.439999999999994
   292   1      11.759999999999998      31.359999999999999      31.359999999999999
   293   1      11.759999999999998                   33.32                   33.32
   294   1      13.719999999999997      31.359999999999999                   33.32
   295   1      13.719999999999997                   33.32      31.359999999999999
   296   1      11.759999999999998      31.359999999999999      35.280000000000001
   297   1      11.759999999999998                   33.32      37.240000000000002
   298   1      13.719999999999997      31.359999999999999      37.240000000000002
   299   1      13.719999999999997                   33.32      35.280000000000001
   300   1      11.759999999999998      31.359999999999999      39.199999999999989
   301   1      11.759999999999998                   33.32      41.159999999999997
   302   1      13.719999999999997      31.359999999999999      41.159999999999997
   303   1      13.719999999999997                   33.32      39.199999999999989
   304   1      11.759999999999998      31.359999999999999      43.119999999999997
   305   1      11.759999999999998                   33.32      45.079999999999998
   306   1      13.719999999999997      31.359999999999999      45.079999999999998
   307   1      13.719999999999997                   33.32      43.119999999999997
   308   1      11.759999999999998      31.359999999999999      47.039999999999999
   309   1      11.759999999999998                   33.32                      49
   310   1      13.719999999999997      31.359999999999999                      49
   311   1      13.719999999999997                   33.32      47.039999999999999
   312   1      11.759999999999998      31.359999999999999      50.959999999999994
   313   1      11.759999999999998                   33.32      52.919999999999987
   314   1      13.719999999999997      31.359999999999999      52.919999999999987
   315   1      13.719999999999997                   33.32      50.959999999999994
   316   1      13.719999999999997                   33.32      54.879999999999988
   317   1      11.759999999999998      37.240000000000002      25.479999999999997
   318   1      13.719999999999997      35.280000000000001      25.479999999999997
   319   1      13.719999999999997      37.240000000000002      23.519999999999996
   320   1      11.759999999999998      35.280000000000001      27.439999999999994
   321   1      11.759999999999998      37.240000000000002      29.399999999999999
   322   1      13.719999999999997      35.280000000000001      29.399999999999999
   323   1      13.719999999999997      37.240000000000002      27.439999999999994
   324   1      11.759999999999998      35.280000000000001      31.359999999999999
   325   1      11.759999999999998      37.240000000000002                   33.32
   326   1      13.719999999999997      35.280000000000001                   33.32
   327   1      13.719999999999997      37.240000000000002      31.359999999999999
   328   1      11.759999999999998      35.280000000000001      35.280000000000001
   329   1      11.759999999999998      37.240000000000002      37.240000000000002
   330   1      13.719999999999997      35.280000000000001      37.240000000000002
   331   1      13.719999999999997      37.240000000000002      35.280000000000001
   332   1      11.759999999999998      35.280000000000001      39.199999999999989
   333   1      11.759999999999998      37.240000000000002      41.159999999999997
   334   1      13.719999999999997      35.280000000000001      41.159999999999997
   335   1      13.719999999999997      37.240000000000002      39.199999999999989
   336   1      11.759999999999998      35.280000000000001      43.119999999999997
   337   1      11.759999999999998      37.240000000000002      45.079999999999998
   338   1      13.719999999999997      35.280000000000001      45.079999999999998
   339   1      13.719999999999997      37.240000000000002      43.119999999999997
   340   1      11.759999999999998      35.280000000000001      47.039999999999999
   341   1      11.759999999999998      37.240000000000002                      49
   342   1      13.719999999999997      35.280000000000001                      49
   343   1      13.719999999999997      37.240000000000002      47.039999999999999
   344   1      11.759999999999998      35.280000000000001      50.959999999999994
   345   1      11.759999999999998      37.240000000000002      52.919999999999987
   346   1      13.719999999999997      35.280000000000001      52.919999999999987
   347   1      13.719999999999997      37.240000000000002      50.959999999999994
   348   1      13.719999999999997      37.240000000000002      54.879999999999988
   349   1      11.759999999999998      41.159999999999997      25.479999999999997
   350   1      13.719999999999997      39.199999999999989      25.479999999999997
   351   1      13.719999999999997      41.159999999999997      23.519999999999996
   352   1      11.759999999999998      39.199999999999989      27.439999999999994
   353   1      11.759999999999998      41.159999999999997      29.399999999999999
   354   1      13.719999999999997      39.199999999999989      29.399999999999999
   355   1      13.719999999999997      41.159999999999997      27.439999999999994
   356   1      11.759999999999998      39.199999999999989      31.359999999999999
   357   1      11.759999999999998      41.159999999999997                   33.32
   358   1      13.719999999999997      39.199999999999989                   33.32