LAMMPS data file via write_data, version 30 Nov 2020, timestep = 0

30029 atoms
5 atom types

0 86 xlo xhi
0 86 ylo yhi
0 86 zlo zhi

Masses

1 58.69
2 58.933
3 51.96
4 55.847
5 54.94

Atoms # atomic

1 4 1.7974999999999994 37.7475 39.545 0 0 0
4 4 1.7974999999999994 39.545 37.7475 0 0 0
5 3 0 41.3425 41.3425 0 0 0
6 3 1.7974999999999994 39.545 41.3425 0 0 0
7 5 1.7974999999999994 41.3425 39.545 0 0 0
30 5 5.392499999999997 28.760000000000005 30.557500000000005 0 0 0
31 5 5.392499999999997 30.557500000000005 28.760000000000005 0 0 0
32 2 5.392499999999997 28.760000000000005 34.1525 0 0 0
33 3 5.392499999999997 30.557500000000005 32.355000000000004 0 0 0
34 5 5.392499999999997 28.760000000000005 37.7475 0 0 0
35 1 5.392499999999997 30.557500000000005 35.95 0 0 0
36 1 5.392499999999997 28.760000000000005 41.3425 0 0 0
37 2 5.392499999999997 30.557500000000005 39.545 0 0 0
47 5 5.392499999999997 32.355000000000004 30.557500000000005 0 0 0
48 1 5.392499999999997 34.1525 28.760000000000005 0 0 0
49 2 3.594999999999999 32.355000000000004 32.355000000000004 0 0 0
50 1 3.594999999999999 34.1525 34.1525 0 0 0
51 1 5.392499999999997 32.355000000000004 34.1525 0 0 0
52 1 5.392499999999997 34.1525 32.355000000000004 0 0 0
53 1 3.594999999999999 32.355000000000004 35.95 0 0 0
54 2 3.594999999999999 34.1525 37.7475 0 0 0
55 5 5.392499999999997 32.355000000000004 37.7475 0 0 0
56 4 5.392499999999997 34.1525 35.95 0 0 0
57 5 3.594999999999999 32.355000000000004 39.545 0 0 0
58 3 3.594999999999999 34.1525 41.3425 0 0 0
59 2 5.392499999999997 32.355000000000004 41.3425 0 0 0
60 1 5.392499999999997 34.1525 39.545 0 0 0
77 4 5.392499999999997 35.95 30.557500000000005 0 0 0
78 1 5.392499999999997 37.7475 28.760000000000005 0 0 0
79 1 3.594999999999999 35.95 32.355000000000004 0 0 0
80 5 3.594999999999999 37.7475 34.1525 0 0 0
81 1 5.392499999999997 35.95 34.1525 0 0 0
82 2 5.392499999999997 37.7475 32.355000000000004 0 0 0
83 3 3.594999999999999 35.95 35.95 0 0 0
84 5 3.594999999999999 37.7475 37.7475 0 0 0
85 1 5.392499999999997 35.95 37.7475 0 0 0
86 5 5.392499999999997 37.7475 35.95 0 0 0
87 3 3.594999999999999 35.95 39.545 0 0 0
88 5 3.594999999999999 37.7475 41.3425 0 0 0
89 4 5.392499999999997 35.95 41.3425 0 0 0
90 5 5.392499999999997 37.7475 39.545 0 0 0
107 3 5.392499999999997 39.545 30.557500000000005 0 0 0
108 3 5.392499999999997 41.3425 28.760000000000005 0 0 0
109 3 3.594999999999999 39.545 32.355000000000004 0 0 0
110 4 3.594999999999999 41.3425 34.1525 0 0 0
111 2 5.392499999999997 39.545 34.1525 0 0 0
112 4 5.392499999999997 41.3425 32.355000000000004 0 0 0
113 2 3.594999999999999 39.545 35.95 0 0 0
114 5 3.594999999999999 41.3425 37.7475 0 0 0
115 4 5.392499999999997 39.545 37.7475 0 0 0
116 5 5.392499999999997 41.3425 35.95 0 0 0
117 1 3.594999999999999 39.545 39.545 0 0 0
118 4 3.594999999999999 41.3425 41.3425 0 0 0
119 4 5.392499999999997 39.545 41.3425 0 0 0
120 5 5.392499999999997 41.3425 39.545 0 0 0
259 3 8.987499999999997 19.7725 21.570000000000004 0 0 0
260 4 8.987499999999997 19.7725 25.165 0 0 0
261 3 8.987499999999997 19.7725 28.760000000000005 0 0 0
262 1 8.987499999999997 19.7725 32.355000000000004 0 0 0
263 1 8.987499999999997 19.7725 35.95 0 0 0
264 3 8.987499999999997 19.7725 39.545 0 0 0
272 2 8.987499999999997 21.570000000000004 19.7725 0 0 0
273 3 7.189999999999998 23.367500000000003 23.367500000000003 0 0 0
274 2 8.987499999999997 21.570000000000004 23.367500000000003 0 0 0
275 2 8.987499999999997 23.367500000000003 21.570000000000004 0 0 0
276 3 7.189999999999998 23.367500000000003 26.962500000000002 0 0 0
277 1 8.987499999999997 21.570000000000004 26.962500000000002 0 0 0
278 5 8.987499999999997 23.367500000000003 25.165 0 0 0
279 5 7.189999999999998 23.367500000000003 30.557500000000005 0 0 0
280 5 8.987499999999997 21.570000000000004 30.557500000000005 0 0 0
281 4 8.987499999999997 23.367500000000003 28.760000000000005 0 0 0
282 2 7.189999999999998 23.367500000000003 34.1525 0 0 0
283 1 8.987499999999997 21.570000000000004 34.1525 0 0 0
284 3 8.987499999999997 23.367500000000003 32.355000000000004 0 0 0
285 2 7.189999999999998 23.367500000000003 37.7475 0 0 0
286 2 8.987499999999997 21.570000000000004 37.7475 0 0 0
287 4 8.987499999999997 23.367500000000003 35.95 0 0 0
288 4 7.189999999999998 23.367500000000003 41.3425 0 0 0
289 5 8.987499999999997 21.570000000000004 41.3425 0 0 0
290 1 8.987499999999997 23.367500000000003 39.545 0 0 0
311 5 8.987499999999997 25.165 19.7725 0 0 0
312 2 7.189999999999998 26.962500000000002 23.367500000000003 0 0 0
313 2 8.987499999999997 25.165 23.367500000000003 0 0 0
314 1 8.987499999999997 26.962500000000002 21.570000000000004 0 0 0
315 3 7.189999999999998 25.165 25.165 0 0 0
316 4 7.189999999999998 26.962500000000002 26.962500000000002 0 0 0
317 1 8.987499999999997 25.165 26.962500000000002 0 0 0
318 5 8.987499999999997 26.962500000000002 25.165 0 0 0
319 2 7.189999999999998 25.165 28.760000000000005 0 0 0
320 1 7.189999999999998 26.962500000000002 30.557500000000005 0 0 0
321 1 8.987499999999997 25.165 30.557500000000005 0 0 0
322 5 8.987499999999997 26.962500000000002 28.760000000000005 0 0 0
323 3 7.189999999999998 25.165 32.355000000000004 0 0 0
324 4 7.189999999999998 26.962500000000002 34.1525 0 0 0
325 5 8.987499999999997 25.165 34.1525 0 0 0
326 1 8.987499999999997 26.962500000000002 32.355000000000004 0 0 0
327 4 7.189999999999998 25.165 35.95 0 0 0
328 2 7.189999999999998 26.962500000000002 37.7475 0 0 0
329 1 8.987499999999997 25.165 37.7475 0 0 0
330 4 8.987499999999997 26.962500000000002 35.95 0 0 0
331 1 7.189999999999998 25.165 39.545 0 0 0
332 4 7.189999999999998 26.962500000000002 41.3425 0 0 0
333 5 8.987499999999997 25.165 41.3425 0 0 0
334 3 8.987499999999997 26.962500000000002 39.545 0 0 0
361 4 8.987499999999997 28.760000000000005 19.7725 0 0 0
362 4 7.189999999999998 30.557500000000005 23.367500000000003 0 0 0
363 5 8.987499999999997 28.760000000000005 23.367500000000003 0 0 0
364 4 8.987499999999997 30.557500000000005 21.570000000000004 0 0 0
365 3 7.189999999999998 28.760000000000005 25.165 0 0 0
366 1 7.189999999999998 30.557500000000005 26.962500000000002 0 0 0
367 1 8.987499999999997 28.760000000000005 26.962500000000002 0 0 0
368 2 8.987499999999997 30.557500000000005 25.165 0 0 0
369 4 7.189999999999998 28.760000000000005 28.760000000000005 0 0 0
370 5 7.189999999999998 30.557500000000005 30.557500000000005 0 0 0
371 1 8.987499999999997 28.760000000000005 30.557500000000005 0 0 0
372 4 8.987499999999997 30.557500000000005 28.760000000000005 0 0 0
373 1 7.189999999999998 28.760000000000005 32.355000000000004 0 0 0
374 5 7.189999999999998 30.557500000000005 34.1525 0 0 0
375 5 8.987499999999997 28.760000000000005 34.1525 0 0 0
376 5 8.987499999999997 30.557500000000005 32.355000000000004 0 0 0
377 4 7.189999999999998 28.760000000000005 35.95 0 0 0
378 1 7.189999999999998 30.557500000000005 37.7475 0 0 0
379 4 8.987499999999997 28.760000000000005 37.7475 0 0 0
380 4 8.987499999999997 30.557500000000005 35.95 0 0 0
381 1 7.189999999999998 28.760000000000005 39.545 0 0 0
382 3 7.189999999999998 30.557500000000005 41.3425 0 0 0
383 3 8.987499999999997 28.760000000000005 41.3425 0 0 0
384 3 8.987499999999997 30.557500000000005 39.545 0 0 0
411 1 8.987499999999997 32.355000000000004 19.7725 0 0 0
412 1 7.189999999999998 34.1525 23.367500000000003 0 0 0
413 2 8.987499999999997 32.355000000000004 23.367500000000003 0 0 0
414 5 8.987499999999997 34.1525 21.570000000000004 0 0 0
415 1 7.189999999999998 32.355000000000004 25.165 0 0 0
416 5 7.189999999999998 34.1525 26.962500000000002 0 0 0
417 5 8.987499999999997 32.355000000000004 26.962500000000002 0 0 0
418 1 8.987499999999997 34.1525 25.165 0 0 0
419 3 7.189999999999998 32.355000000000004 28.760000000000005 0 0 0
420 1 7.189999999999998 34.1525 30.557500000000005 0 0 0
421 2 8.987499999999997 32.355000000000004 30.557500000000005 0 0 0
422 2 8.987499999999997 34.1525 28.760000000000005 0 0 0
423 2 7.189999999999998 32.355000000000004 32.355000000000004 0 0 0
424 5 7.189999999999998 34.1525 34.1525 0 0 0
425 1 8.987499999999997 32.355000000000004 34.1525 0 0 0
426 1 8.987499999999997 34.1525 32.355000000000004 0 0 0
427 1 7.189999999999998 32.355000000000004 35.95 0 0 0
428 3 7.189999999999998 34.1525 37.7475 0 0 0
429 4 8.987499999999997 32.355000000000004 37.7475 0 0 0
430 5 8.987499999999997 34.1525 35.95 0 0 0
431 5 7.189999999999998 32.355000000000004 39.545 0 0 0
432 1 7.189999999999998 34.1525 41.3425 0 0 0
433 2 8.987499999999997 32.355000000000004 41.3425 0 0 0
434 5 8.987499999999997 34.1525 39.545 0 0 0
461 5 8.987499999999997 35.95 19.7725 0 0 0
462 3 7.189999999999998 37.7475 23.367500000000003 0 0 0
463 1 8.987499999999997 35.95 23.367500000000003 0 0 0
464 5 8.987499999999997 37.7475 21.570000000000004 0 0 0
465 3 7.189999999999998 35.95 25.165 0 0 0
466 2 7.189999999999998 37.7475 26.962500000000002 0 0 0
467 2 8.987499999999997 35.95 26.962500000000002 0 0 0
468 4 8.987499999999997 37.7475 25.165 0 0 0
469 5 7.189999999999998 35.95 28.760000000000005 0 0 0
470 3 7.189999999999998 37.7475 30.557500000000005 0 0 0
471 1 8.987499999999997 35.95 30.557500000000005 0 0 0
472 4 8.987499999999997 37.7475 28.760000000000005 0 0 0
473 3 7.189999999999998 35.95 32.355000000000004 0 0 0
474 1 7.189999999999998 37.7475 34.1525 0 0 0
475 4 8.987499999999997 35.95 34.1525 0 0 0
476 5 8.987499999999997 37.7475 32.355000000000004 0 0 0
477 1 7.189999999999998 35.95 35.95 0 0 0
478 2 7.189999999999998 37.7475 37.7475 0 0 0
479 2 8.987499999999997 35.95 37.7475 0 0 0
480 2 8.987499999999997 37.7475 35.95 0 0 0
481 1 7.189999999999998 35.95 39.545 0 0 0
482 5 7.189999999999998 37.7475 41.3425 0 0 0
483 3 8.987499999999997 35.95 41.3425 0 0 0
484 2 8.987499999999997 37.7475 39.545 0 0 0
511 3 8.987499999999997 39.545 19.7725 0 0 0
512 5 7.189999999999998 41.3425 23.367500000000003 0 0 0
513 5 8.987499999999997 39.545 23.367500000000003 0 0 0
514 4 8.987499999999997 41.3425 21.570000000000004 0 0 0
515 3 7.189999999999998 39.545 25.165 0 0 0
516 4 7.189999999999998 41.3425 26.962500000000002 0 0 0
517 5 8.987499999999997 39.545 26.962500000000002 0 0 0
518 5 8.987499999999997 41.3425 25.165 0 0 0
519 3 7.189999999999998 39.545 28.760000000000005 0 0 0
520 1 7.189999999999998 41.3425 30.557500000000005 0 0 0
521 5 8.987499999999997 39.545 30.557500000000005 0 0 0
522 2 8.987499999999997 41.3425 28.760000000000005 0 0 0
523 5 7.189999999999998 39.545 32.355000000000004 0 0 0
524 1 7.189999999999998 41.3425 34.1525 0 0 0
525 1 8.987499999999997 39.545 34.1525 0 0 0
526 2 8.987499999999997 41.3425 32.355000000000004 0 0 0
527 3 7.189999999999998 39.545 35.95 0 0 0
528 5 7.189999999999998 41.3425 37.7475 0 0 0
529 5 8.987499999999997 39.545 37.7475 0 0 0
530 2 8.987499999999997 41.3425 35.95 0 0 0
531 4 7.189999999999998 39.545 39.545 0 0 0
532 3 7.189999999999998 41.3425 41.3425 0 0 0
533 2 8.987499999999997 39.545 41.3425 0 0 0
534 1 8.987499999999997 41.3425 39.545 0 0 0
888 3 12.582500000000003 12.582500000000003 14.380000000000003 0 0 0
889 1 12.582500000000003 12.582500000000003 17.975 0 0 0
890 5 12.582500000000003 12.582500000000003 21.570000000000004 0 0 0
891 5 12.582500000000003 12.582500000000003 25.165 0 0 0
892 2 12.582500000000003 12.582500000000003 28.760000000000005 0 0 0
893 1 12.582500000000003 12.582500000000003 32.355000000000004 0 0 0
894 2 12.582500000000003 12.582500000000003 35.95 0 0 0
895 1 12.582500000000003 12.582500000000003 39.545 0 0 0
905 5 12.582500000000003 14.380000000000003 12.582500000000003 0 0 0
906 3 10.785000000000002 14.380000000000003 14.380000000000003 0 0 0
907 5 10.785000000000002 16.177500000000002 16.177500000000002 0 0 0
908 1 12.582500000000003 14.380000000000003 16.177500000000002 0 0 0
909 4 12.582500000000003 16.177500000000002 14.380000000000003 0 0 0
910 4 10.785000000000002 14.380000000000003 17.975 0 0 0
911 3 10.785000000000002 16.177500000000002 19.7725 0 0 0
912 4 12.582500000000003 14.380000000000003 19.7725 0 0 0
913 2 12.582500000000003 16.177500000000002 17.975 0 0 0
914 2 10.785000000000002 14.380000000000003 21.570000000000004 0 0 0
915 3 10.785000000000002 16.177500000000002 23.367500000000003 0 0 0
916 2 12.582500000000003 14.380000000000003 23.367500000000003 0 0 0
917 5 12.582500000000003 16.177500000000002 21.570000000000004 0 0 0
918 1 10.785000000000002 14.380000000000003 25.165 0 0 0
919 3 10.785000000000002 16.177500000000002 26.962500000000002 0 0 0
920 4 12.582500000000003 14.380000000000003 26.962500000000002 0 0 0
921 1 12.582500000000003 16.177500000000002 25.165 0 0 0
922 1 10.785000000000002 14.380000000000003 28.760000000000005 0 0 0
923 1 10.785000000000002 16.177500000000002 30.557500000000005 0 0 0
924 2 12.582500000000003 14.380000000000003 30.557500000000005 0 0 0
925 1 12.582500000000003 16.177500000000002 28.760000000000005 0 0 0
926 2 10.785000000000002 14.380000000000003 32.355000000000004 0 0 0
927 4 10.785000000000002 16.177500000000002 34.1525 0 0 0
928 2 12.582500000000003 14.380000000000003 34.1525 0 0 0
929 2 12.582500000000003 16.177500000000002 32.355000000000004 0 0 0
930 5 10.785000000000002 14.380000000000003 35.95 0 0 0
931 2 10.785000000000002 16.177500000000002 37.7475 0 0 0
932 4 12.582500000000003 14.380000000000003 37.7475 0 0 0
933 1 12.582500000000003 16.177500000000002 35.95 0 0 0
934 1 10.785000000000002 14.380000000000003 39.545 0 0 0
935 1 10.785000000000002 16.177500000000002 41.3425 0 0 0
936 2 12.582500000000003 14.380000000000003 41.3425 0 0 0
937 2 12.582500000000003 16.177500000000002 39.545 0 0 0
973 5 12.582500000000003 17.975 12.582500000000003 0 0 0
974 2 10.785000000000002 17.975 14.380000000000003 0 0 0
975 1 10.785000000000002 19.7725 16.177500000000002 0 0 0
976 3 12.582500000000003 17.975 16.177500000000002 0 0 0
977 3 12.582500000000003 19.7725 14.380000000000003 0 0 0
978 4 10.785000000000002 17.975 17.975 0 0 0
979 2 10.785000000000002 19.7725 19.7725 0 0 0
980 5 12.582500000000003 17.975 19.7725 0 0 0
981 1 12.582500000000003 19.7725 17.975 0 0 0
982 5 10.785000000000002 17.975 21.570000000000004 0 0 0
983 4 10.785000000000002 19.7725 23.367500000000003 0 0 0
984 5 12.582500000000003 17.975 23.367500000000003 0 0 0
985 2 12.582500000000003 19.7725 21.570000000000004 0 0 0
986 2 10.785000000000002 17.975 25.165 0 0 0
987 1 10.785000000000002 19.7725 26.962500000000002 0 0 0
988 3 12.582500000000003 17.975 26.962500000000002 0 0 0
989 1 12.582500000000003 19.7725 25.165 0 0 0
990 1 10.785000000000002 17.975 28.760000000000005 0 0 0
991 1 10.785000000000002 19.7725 30.557500000000005 0 0 0
992 4 12.582500000000003 17.975 30.557500000000005 0 0 0
993 4 12.582500000000003 19.7725 28.760000000000005 0 0 0
994 4 10.785000000000002 17.975 32.355000000000004 0 0 0
995 3 10.785000000000002 19.7725 34.1525 0 0 0
996 1 12.582500000000003 17.975 34.1525 0 0 0
997 4 12.582500000000003 19.7725 32.355000000000004 0 0 0
998 3 10.785000000000002 17.975 35.95 0 0 0
999 5 10.785000000000002 19.7725 37.7475 0 0 0
1000 5 12.582500000000003 17.975 37.7475 0 0 0
1001 5 12.582500000000003 19.7725 35.95 0 0 0
1002 2 10.785000000000002 17.975 39.545 0 0 0
1003 2 10.785000000000002 19.7725 41.3425 0 0 0
1004 4 12.582500000000003 17.975 41.3425 0 0 0
1005 1 12.582500000000003 19.7725 39.545 0 0 0
1041 2 12.582500000000003 21.570000000000004 12.582500000000003 0 0 0
1042 4 10.785000000000002 21.570000000000004 14.380000000000003 0 0 0
1043 1 10.785000000000002 23.367500000000003 16.177500000000002 0 0 0
1044 3 12.582500000000003 21.570000000000004 16.177500000000002 0 0 0
1045 5 12.582500000000003 23.367500000000003 14.380000000000003 0 0 0
1046 5 10.785000000000002 21.570000000000004 17.975 0 0 0
1047 3 10.785000000000002 23.367500000000003 19.7725 0 0 0
1048 4 12.582500000000003 21.570000000000004 19.7725 0 0 0
1049 5 12.582500000000003 23.367500000000003 17.975 0 0 0
1050 4 10.785000000000002 21.570000000000004 21.570000000000004 0 0 0
1051 1 10.785000000000002 23.367500000000003 23.367500000000003 0 0 0
1052 1 12.582500000000003 21.570000000000004 23.367500000000003 0 0 0
1053 1 12.582500000000003 23.367500000000003 21.570000000000004 0 0 0
1054 3 10.785000000000002 21.570000000000004 25.165 0 0 0
1055 1 10.785000000000002 23.367500000000003 26.962500000000002 0 0 0
1056 3 12.582500000000003 21.570000000000004 26.962500000000002 0 0 0
1057 2 12.582500000000003 23.367500000000003 25.165 0 0 0
1058 5 10.785000000000002 21.570000000000004 28.760000000000005 0 0 0
1059 1 10.785000000000002 23.367500000000003 30.557500000000005 0 0 0
1060 1 12.582500000000003 21.570000000000004 30.557500000000005 0 0 0
1061 2 12.582500000000003 23.367500000000003 28.760000000000005 0 0 0
1062 1 10.785000000000002 21.570000000000004 32.355000000000004 0 0 0
1063 4 10.785000000000002 23.367500000000003 34.1525 0 0 0
1064 3 12.582500000000003 21.570000000000004 34.1525 0 0 0
1065 3 12.582500000000003 23.367500000000003 32.355000000000004 0 0 0
1066 4 10.785000000000002 21.570000000000004 35.95 0 0 0
1067 5 10.785000000000002 23.367500000000003 37.7475 0 0 0
1068 4 12.582500000000003 21.570000000000004 37.7475 0 0 0
1069 1 12.582500000000003 23.367500000000003 35.95 0 0 0
1070 3 10.785000000000002 21.570000000000004 39.545 0 0 0
1071 5 10.785000000000002 23.367500000000003 41.3425 0 0 0
1072 3 12.582500000000003 21.570000000000004 41.3425 0 0 0
1073 1 12.582500000000003 23.367500000000003 39.545 0 0 0
1109 2 12.582500000000003 25.165 12.582500000000003 0 0 0
1110 3 10.785000000000002 25.165 14.380000000000003 0 0 0
1111 4 10.785000000000002 26.962500000000002 16.177500000000002 0 0 0
1112 4 12.582500000000003 25.165 16.177500000000002 0 0 0
1113 1 12.582500000000003 26.962500000000002 14.380000000000003 0 0 0
1114 1 10.785000000000002 25.165 17.975 0 0 0
1115 4 10.785000000000002 26.962500000000002 19.7725 0 0 0
1116 3 12.582500000000003 25.165 19.7725 0 0 0
1117 3 12.582500000000003 26.962500000000002 17.975 0 0 0
1118 5 10.785000000000002 25.165 21.570000000000004 0 0 0
1119 5 10.785000000000002 26.962500000000002 23.367500000000003 0 0 0
1120 5 12.582500000000003 25.165 23.367500000000003 0 0 0
1121 5 12.582500000000003 26.962500000000002 21.570000000000004 0 0 0
1122 2 10.785000000000002 25.165 25.165 0 0 0
1123 2 10.785000000000002 26.962500000000002 26.962500000000002 0 0 0
1124 1 12.582500000000003 25.165 26.962500000000002 0 0 0
1125 2 12.582500000000003 26.962500000000002 25.165 0 0 0
1126 5 10.785000000000002 25.165 28.760000000000005 0 0 0
1127 2 10.785000000000002 26.962500000000002 30.557500000000005 0 0 0
1128 5 12.582500000000003 25.165 30.557500000000005 0 0 0
1129 2 12.582500000000003 26.962500000000002 28.760000000000005 0 0 0
1130 4 10.785000000000002 25.165 32.355000000000004 0 0 0
1131 4 10.785000000000002 26.962500000000002 34.1525 0 0 0
1132 3 12.582500000000003 25.165 34.1525 0 0 0
1133 2 12.582500000000003 26.962500000000002 32.355000000000004 0 0 0
1134 2 10.785000000000002 25.165 35.95 0 0 0
1135 1 10.785000000000002 26.962500000000002 37.7475 0 0 0
1136 4 12.582500000000003 25.165 37.7475 0 0 0
1137 1 12.582500000000003 26.962500000000002 35.95 0 0 0
1138 2 10.785000000000002 25.165 39.545 0 0 0
1139 1 10.785000000000002 26.962500000000002 41.3425 0 0 0
1140 5 12.582500000000003 25.165 41.3425 0 0 0
1141 3 12.582500000000003 26.962500000000002 39.545 0 0 0
1177 3 12.582500000000003 28.760000000000005 12.582500000000003 0 0 0
1178 2 10.785000000000002 28.760000000000005 14.380000000000003 0 0 0
1179 1 10.785000000000002 30.557500000000005 16.177500000000002 0 0 0
1180 1 12.582500000000003 28.760000000000005 16.177500000000002 0 0 0
1181 1 12.582500000000003 30.557500000000005 14.380000000000003 0 0 0
1182 3 10.785000000000002 28.760000000000005 17.975 0 0 0
1183 4 10.785000000000002 30.557500000000005 19.7725 0 0 0
1184 4 12.582500000000003 28.760000000000005 19.7725 0 0 0
1185 3 12.582500000000003 30.557500000000005 17.975 0 0 0
1186 5 10.785000000000002 28.760000000000005 21.570000000000004 0 0 0
1187 1 10.785000000000002 30.557500000000005 23.367500000000003 0 0 0
1188 1 12.582500000000003 28.760000000000005 23.367500000000003 0 0 0
1189 1 12.582500000000003 30.557500000000005 21.570000000000004 0 0 0
1190 5 10.785000000000002 28.760000000000005 25.165 0 0 0
1191 5 10.785000000000002 30.557500000000005 26.962500000000002 0 0 0
1192 2 12.582500000000003 28.760000000000005 26.962500000000002 0 0 0
1193 3 12.582500000000003 30.557500000000005 25.165 0 0 0
1194 1 10.785000000000002 28.760000000000005 28.760000000000005 0 0 0
1195 5 10.785000000000002 30.557500000000005 30.557500000000005 0 0 0
1196 3 12.582500000000003 28.760000000000005 30.557500000000005 0 0 0
1197 5 12.582500000000003 30.557500000000005 28.760000000000005 0 0 0
1198 1 10.785000000000002 28.760000000000005 32.355000000000004 0 0 0
1199 1 10.785000000000002 30.557500000000005 34.1525 0 0 0
1200 5 12.582500000000003 28.760000000000005 34.1525 0 0 0
1201 4 12.582500000000003 30.557500000000005 32.355000000000004 0 0 0
1202 1 10.785000000000002 28.760000000000005 35.95 0 0 0
1203 4 10.785000000000002 30.557500000000005 37.7475 0 0 0
1204 1 12.582500000000003 28.760000000000005 37.7475 0 0 0
1205 2 12.582500000000003 30.557500000000005 35.95 0 0 0
1206 2 10.785000000000002 28.760000000000005 39.545 0 0 0
1207 4 10.785000000000002 30.557500000000005 41.3425 0 0 0
1208 5 12.582500000000003 28.760000000000005 41.3425 0 0 0
1209 3 12.582500000000003 30.557500000000005 39.545 0 0 0
1245 2 12.582500000000003 32.355000000000004 12.582500000000003 0 0 0
1246 4 10.785000000000002 32.355000000000004 14.380000000000003 0 0 0
1247 3 10.785000000000002 34.1525 16.177500000000002 0 0 0
1248 4 12.582500000000003 32.355000000000004 16.177500000000002 0 0 0
1249 2 12.582500000000003 34.1525 14.380000000000003 0 0 0
1250 3 10.785000000000002 32.355000000000004 17.975 0 0 0
1251 5 10.785000000000002 34.1525 19.7725 0 0 0
1252 5 12.582500000000003 32.355000000000004 19.7725 0 0 0
1253 1 12.582500000000003 34.1525 17.975 0 0 0
1254 5 10.785000000000002 32.355000000000004 21.570000000000004 0 0 0
1255 2 10.785000000000002 34.1525 23.367500000000003 0 0 0
1256 5 12.582500000000003 32.355000000000004 23.367500000000003 0 0 0
1257 3 12.582500000000003 34.1525 21.570000000000004 0 0 0
1258 4 10.785000000000002 32.355000000000004 25.165 0 0 0
1259 4 10.785000000000002 34.1525 26.962500000000002 0 0 0
1260 5 12.582500000000003 32.355000000000004 26.962500000000002 0 0 0
1261 3 12.582500000000003 34.1525 25.165 0 0 0
1262 3 10.785000000000002 32.355000000000004 28.760000000000005 0 0 0
1263 2 10.785000000000002 34.1525 30.557500000000005 0 0 0
1264 5 12.582500000000003 32.355000000000004 30.557500000000005 0 0 0
1265 1 12.582500000000003 34.1525 28.760000000000005 0 0 0
1266 1 10.785000000000002 32.355000000000004 32.355000000000004 0 0 0
1267 5 10.785000000000002 34.1525 34.1525 0 0 0
1268 1 12.582500000000003 32.355000000000004 34.1525 0 0 0
1269 2 12.582500000000003 34.1525 32.355000000000004 0 0 0
1270 3 10.785000000000002 32.355000000000004 35.95 0 0 0
1271 4 10.785000000000002 34.1525 37.7475 0 0 0
1272 1 12.582500000000003 32.355000000000004 37.7475 0 0 0
1273 5 12.582500000000003 34.1525 35.95 0 0 0
1274 2 10.785000000000002 32.355000000000004 39.545 0 0 0
1275 3 10.785000000000002 34.1525 41.3425 0 0 0
1276 5 12.582500000000003 32.355000000000004 41.3425 0 0 0
1277 2 12.582500000000003 34.1525 39.545 0 0 0
1313 3 12.582500000000003 35.95 12.582500000000003 0 0 0
1314 1 10.785000000000002 35.95 14.380000000000003 0 0 0
1315 4 10.785000000000002 37.7475 16.177500000000002 0 0 0
1316 2 12.582500000000003 35.95 16.177500000000002 0 0 0
1317 2 12.582500000000003 37.7475 14.380000000000003 0 0 0
1318 2 10.785000000000002 35.95 17.975 0 0 0
1319 2 10.785000000000002 37.7475 19.7725 0 0 0
1320 1 12.582500000000003 35.95 19.7725 0 0 0
1321 2 12.582500000000003 37.7475 17.975 0 0 0
1322 4 10.785000000000002 35.95 21.570000000000004 0 0 0
1323 5 10.785000000000002 37.7475 23.367500000000003 0 0 0
1324 2 12.582500000000003 35.95 23.367500000000003 0 0 0
1325 2 12.582500000000003 37.7475 21.570000000000004 0 0 0
1326 1 10.785000000000002 35.95 25.165 0 0 0
1327 2 10.785000000000002 37.7475 26.962500000000002 0 0 0
1328 1 12.582500000000003 35.95 26.962500000000002 0 0 0
1329 1 12.582500000000003 37.7475 25.165 0 0 0
1330 2 10.785000000000002 35.95 28.760000000000005 0 0 0
1331 1 10.785000000000002 37.7475 30.557500000000005 0 0 0
1332 1 12.582500000000003 35.95 30.557500000000005 0 0 0
1333 3 12.582500000000003 37.7475 28.760000000000005 0 0 0
1334 3 10.785000000000002 35.95 32.355000000000004 0 0 0
1335 3 10.785000000000002 37.7475 34.1525 0 0 0
1336 3 12.582500000000003 35.95 34.1525 0 0 0
1337 5 12.582500000000003 37.7475 32.355000000000004 0 0 0
1338 3 10.785000000000002 35.95 35.95 0 0 0
1339 4 10.785000000000002 37.7475 37.7475 0 0 0
1340 3 12.582500000000003 35.95 37.7475 0 0 0
1341 1 12.582500000000003 37.7475 35.95 0 0 0
1342 4 10.785000000000002 35.95 39.545 0 0 0
1343 2 10.785000000000002 37.7475 41.3425 0 0 0
1344 2 12.582500000000003 35.95 41.3425 0 0 0
1345 4 12.582500000000003 37.7475 39.545 0 0 0
1381 4 12.582500000000003 39.545 12.582500000000003 0 0 0
1382 4 10.785000000000002 39.545 14.380000000000003 0 0 0
1383 5 10.785000000000002 41.3425 16.177500000000002 0 0 0
1384 1 12.582500000000003 39.545 16.177500000000002 0 0 0
1385 1 12.582500000000003 41.3425 14.380000000000003 0 0 0
1386 5 10.785000000000002 39.545 17.975 0 0 0
1387 4 10.785000000000002 41.3425 19.7725 0 0 0
1388 2 12.582500000000003 39.545 19.7725 0 0 0
1389 3 12.582500000000003 41.3425 17.975 0 0 0
1390 5 10.785000000000002 39.545 21.570000000000004 0 0 0
1391 4 10.785000000000002 41.3425 23.367500000000003 0 0 0
1392 3 12.582500000000003 39.545 23.367500000000003 0 0 0
1393 5 12.582500000000003 41.3425 21.570000000000004 0 0 0
1394 3 10.785000000000002 39.545 25.165 0 0 0
1395 2 10.785000000000002 41.3425 26.962500000000002 0 0 0
1396 2 12.582500000000003 39.545 26.962500000000002 0 0 0
1397 5 12.582500000000003 41.3425 25.165 0 0 0
1398 3 10.785000000000002 39.545 28.760000000000005 0 0 0
1399 3 10.785000000000002 41.3425 30.557500000000005 0 0 0
1400 4 12.582500000000003 39.545 30.557500000000005 0 0 0
1401 3 12.582500000000003 41.3425 28.760000000000005 0 0 0
1402 4 10.785000000000002 39.545 32.355000000000004 0 0 0
1403 1 10.785000000000002 41.3425 34.1525 0 0 0
1404 2 12.582500000000003 39.545 34.1525 0 0 0
1405 2 12.582500000000003 41.3425 32.355000000000004 0 0 0
1406 1 10.785000000000002 39.545 35.95 0 0 0
1407 5 10.785000000000002 41.3425 37.7475 0 0 0
1408 5 12.582500000000003 39.545 37.7475 0 0 0
1409 4 12.582500000000003 41.3425 35.95 0 0 0
1410 5 10.785000000000002 39.545 39.545 0 0 0
1411 3 10.785000000000002 41.3425 41.3425 0 0 0
1412 4 12.582500000000003 39.545 41.3425 0 0 0
1413 4 12.582500000000003 41.3425 39.545 0 0 0
2045 1 14.380000000000003 12.582500000000003 12.582500000000003 0 0 0
2046 1 14.380000000000003 10.785000000000002 14.380000000000003 0 0 0
2047 5 14.380000000000003 12.582500000000003 16.177500000000002 0 0 0
2048 4 16.177500000000002 10.785000000000002 16.177500000000002 0 0 0
2049 3 16.177500000000002 12.582500000000003 14.380000000000003 0 0 0
2050 1 14.380000000000003 10.785000000000002 17.975 0 0 0
2051 5 14.380000000000003 12.582500000000003 19.7725 0 0 0
2052 4 16.177500000000002 10.785000000000002 19.7725 0 0 0
2053 2 16.177500000000002 12.582500000000003 17.975 0 0 0
2054 1 14.380000000000003 10.785000000000002 21.570000000000004 0 0 0
2055 2 14.380000000000003 12.582500000000003 23.367500000000003 0 0 0
2056 1 16.177500000000002 10.785000000000002 23.367500000000003 0 0 0
2057 1 16.177500000000002 12.582500000000003 21.570000000000004 0 0 0
2058 2 14.380000000000003 10.785000000000002 25.165 0 0 0
2059 5 14.380000000000003 12.582500000000003 26.962500000000002 0 0 0
2060 3 16.177500000000002 10.785000000000002 26.962500000000002 0 0 0
2061 5 16.177500000000002 12.582500000000003 25.165 0 0 0
2062 1 14.380000000000003 10.785000000000002 28.760000000000005 0 0 0
2063 2 14.380000000000003 12.582500000000003 30.557500000000005 0 0 0
2064 3 16.177500000000002 10.785000000000002 30.557500000000005 0 0 0
2065 1 16.177500000000002 12.582500000000003 28.760000000000005 0 0 0
2066 3 14.380000000000003 10.785000000000002 32.355000000000004 0 0 0
2067 5 14.380000000000003 12.582500000000003 34.1525 0 0 0
2068 1 16.177500000000002 10.785000000000002 34.1525 0 0 0
2069 3 16.177500000000002 12.582500000000003 32.355000000000004 0 0 0
2070 5 14.380000000000003 10.785000000000002 35.95 0 0 0
2071 3 14.380000000000003 12.582500000000003 37.7475 0 0 0
2072 3 16.177500000000002 10.785000000000002 37.7475 0 0 0
2073 2 16.177500000000002 12.582500000000003 35.95 0 0 0
2074 5 14.380000000000003 10.785000000000002 39.545 0 0 0
2075 2 14.380000000000003 12.582500000000003 41.3425 0 0 0
2076 3 16.177500000000002 10.785000000000002 41.3425 0 0 0
2077 4 16.177500000000002 12.582500000000003 39.545 0 0 0
2113 2 14.380000000000003 14.380000000000003 10.785000000000002 0 0 0
2114 3 14.380000000000003 16.177500000000002 12.582500000000003 0 0 0
2115 5 16.177500000000002 14.380000000000003 12.582500000000003 0 0 0
2116 3 16.177500000000002 16.177500000000002 10.785000000000002 0 0 0
2117 1 14.380000000000003 14.380000000000003 14.380000000000003 0 0 0
2118 2 14.380000000000003 16.177500000000002 16.177500000000002 0 0 0
2119 5 16.177500000000002 14.380000000000003 16.177500000000002 0 0 0
2120 4 16.177500000000002 16.177500000000002 14.380000000000003 0 0 0
2121 3 14.380000000000003 14.380000000000003 17.975 0 0 0
2122 1 14.380000000000003 16.177500000000002 19.7725 0 0 0
2123 3 16.177500000000002 14.380000000000003 19.7725 0 0 0
2124 5 16.177500000000002 16.177500000000002 17.975 0 0 0
2125 4 14.380000000000003 14.380000000000003 21.570000000000004 0 0 0
2126 3 14.380000000000003 16.177500000000002 23.367500000000003 0 0 0