model_files/NiCoCrFeMn/NiCoCrFeMn_30000/NiCoCrFeMn_520/NiCoCrFeMn_520_fcc_30029_temp.data (written by ASE) 

30029 	 atoms 
5  atom types
0.0                      86  xlo xhi
0.0                      86  ylo yhi
0.0                      86  zlo zhi


Atoms 

     1   1      1.7974999999999994      37.747500000000002      39.545000000000002
     2   1      1.7974999999999994      37.747500000000002      43.140000000000001
     3   1      1.7974999999999994      37.747500000000002      46.735000000000007
     4   1      1.7974999999999994      39.545000000000002      37.747500000000002
     5   1                       0      41.342500000000001      41.342500000000001
     6   1      1.7974999999999994      39.545000000000002      41.342500000000001
     7   1      1.7974999999999994      41.342500000000001      39.545000000000002
     8   1                       0      41.342500000000001                 44.9375
     9   1      1.7974999999999994      39.545000000000002                 44.9375
    10   1      1.7974999999999994      41.342500000000001      43.140000000000001
    11   1      1.7974999999999994      39.545000000000002      48.532500000000006
    12   1      1.7974999999999994      41.342500000000001      46.735000000000007
    13   1      1.7974999999999994      43.140000000000001      37.747500000000002
    14   1                       0                 44.9375      41.342500000000001
    15   1      1.7974999999999994      43.140000000000001      41.342500000000001
    16   1      1.7974999999999994                 44.9375      39.545000000000002
    17   1                       0      43.140000000000001      43.140000000000001
    18   1                       0                 44.9375                 44.9375
    19   1      1.7974999999999994      43.140000000000001                 44.9375
    20   1      1.7974999999999994                 44.9375      43.140000000000001
    21   1      1.7974999999999994      43.140000000000001      48.532500000000006
    22   1      1.7974999999999994                 44.9375      46.735000000000007
    23   1      1.7974999999999994      46.735000000000007      37.747500000000002
    24   1      1.7974999999999994      46.735000000000007      41.342500000000001
    25   1      1.7974999999999994      48.532500000000006      39.545000000000002
    26   1      1.7974999999999994      46.735000000000007                 44.9375
    27   1      1.7974999999999994      48.532500000000006      43.140000000000001
    28   1      1.7974999999999994      46.735000000000007      48.532500000000006
    29   1      1.7974999999999994      48.532500000000006      46.735000000000007
    30   1      5.3924999999999974      28.760000000000005      30.557500000000005
    31   1      5.3924999999999974      30.557500000000005      28.760000000000005
    32   1      5.3924999999999974      28.760000000000005      34.152500000000003
    33   1      5.3924999999999974      30.557500000000005      32.355000000000004
    34   1      5.3924999999999974      28.760000000000005      37.747500000000002
    35   1      5.3924999999999974      30.557500000000005      35.950000000000003
    36   1      5.3924999999999974      28.760000000000005      41.342500000000001
    37   1      5.3924999999999974      30.557500000000005      39.545000000000002
    38   1      5.3924999999999974      28.760000000000005                 44.9375
    39   1      5.3924999999999974      30.557500000000005      43.140000000000001
    40   1      5.3924999999999974      28.760000000000005      48.532500000000006
    41   1      5.3924999999999974      30.557500000000005      46.735000000000007
    42   1      5.3924999999999974      28.760000000000005      52.127500000000012
    43   1      5.3924999999999974      30.557500000000005      50.329999999999998
    44   1      5.3924999999999974      28.760000000000005      55.722500000000004
    45   1      5.3924999999999974      30.557500000000005      53.925000000000004
    46   1      5.3924999999999974      30.557500000000005      57.520000000000003
    47   1      5.3924999999999974      32.355000000000004      30.557500000000005
    48   1      5.3924999999999974      34.152500000000003      28.760000000000005
    49   1      3.5949999999999989      32.355000000000004      32.355000000000004
    50   1      3.5949999999999989      34.152500000000003      34.152500000000003
    51   1      5.3924999999999974      32.355000000000004      34.152500000000003
    52   1      5.3924999999999974      34.152500000000003      32.355000000000004
    53   1      3.5949999999999989      32.355000000000004      35.950000000000003
    54   1      3.5949999999999989      34.152500000000003      37.747500000000002
    55   1      5.3924999999999974      32.355000000000004      37.747500000000002
    56   1      5.3924999999999974      34.152500000000003      35.950000000000003
    57   1      3.5949999999999989      32.355000000000004      39.545000000000002
    58   1      3.5949999999999989      34.152500000000003      41.342500000000001
    59   1      5.3924999999999974      32.355000000000004      41.342500000000001
    60   1      5.3924999999999974      34.152500000000003      39.545000000000002
    61   1      3.5949999999999989      32.355000000000004      43.140000000000001
    62   1      3.5949999999999989      34.152500000000003                 44.9375
    63   1      5.3924999999999974      32.355000000000004                 44.9375
    64   1      5.3924999999999974      34.152500000000003      43.140000000000001
    65   1      3.5949999999999989      32.355000000000004      46.735000000000007
    66   1      3.5949999999999989      34.152500000000003      48.532500000000006
    67   1      5.3924999999999974      32.355000000000004      48.532500000000006
    68   1      5.3924999999999974      34.152500000000003      46.735000000000007
    69   1      3.5949999999999989      32.355000000000004      50.329999999999998
    70   1      3.5949999999999989      34.152500000000003      52.127500000000012
    71   1      5.3924999999999974      32.355000000000004      52.127500000000012
    72   1      5.3924999999999974      34.152500000000003      50.329999999999998
    73   1      3.5949999999999989      32.355000000000004      53.925000000000004
    74   1      5.3924999999999974      32.355000000000004      55.722500000000004
    75   1      5.3924999999999974      34.152500000000003      53.925000000000004
    76   1      5.3924999999999974      34.152500000000003      57.520000000000003
    77   1      5.3924999999999974      35.950000000000003      30.557500000000005
    78   1      5.3924999999999974      37.747500000000002      28.760000000000005
    79   1      3.5949999999999989      35.950000000000003      32.355000000000004
    80   1      3.5949999999999989      37.747500000000002      34.152500000000003
    81   1      5.3924999999999974      35.950000000000003      34.152500000000003
    82   1      5.3924999999999974      37.747500000000002      32.355000000000004
    83   1      3.5949999999999989      35.950000000000003      35.950000000000003
    84   1      3.5949999999999989      37.747500000000002      37.747500000000002
    85   1      5.3924999999999974      35.950000000000003      37.747500000000002
    86   1      5.3924999999999974      37.747500000000002      35.950000000000003
    87   1      3.5949999999999989      35.950000000000003      39.545000000000002
    88   1      3.5949999999999989      37.747500000000002      41.342500000000001
    89   1      5.3924999999999974      35.950000000000003      41.342500000000001
    90   1      5.3924999999999974      37.747500000000002      39.545000000000002
    91   1      3.5949999999999989      35.950000000000003      43.140000000000001
    92   1      3.5949999999999989      37.747500000000002                 44.9375
    93   1      5.3924999999999974      35.950000000000003                 44.9375
    94   1      5.3924999999999974      37.747500000000002      43.140000000000001
    95   1      3.5949999999999989      35.950000000000003      46.735000000000007
    96   1      3.5949999999999989      37.747500000000002      48.532500000000006
    97   1      5.3924999999999974      35.950000000000003      48.532500000000006
    98   1      5.3924999999999974      37.747500000000002      46.735000000000007
    99   1      3.5949999999999989      35.950000000000003      50.329999999999998
   100   1      3.5949999999999989      37.747500000000002      52.127500000000012
   101   1      5.3924999999999974      35.950000000000003      52.127500000000012
   102   1      5.3924999999999974      37.747500000000002      50.329999999999998
   103   1      3.5949999999999989      35.950000000000003      53.925000000000004
   104   1      5.3924999999999974      35.950000000000003      55.722500000000004
   105   1      5.3924999999999974      37.747500000000002      53.925000000000004
   106   1      5.3924999999999974      37.747500000000002      57.520000000000003
   107   1      5.3924999999999974      39.545000000000002      30.557500000000005
   108   1      5.3924999999999974      41.342500000000001      28.760000000000005
   109   1      3.5949999999999989      39.545000000000002      32.355000000000004
   110   1      3.5949999999999989      41.342500000000001      34.152500000000003
   111   1      5.3924999999999974      39.545000000000002      34.152500000000003
   112   1      5.3924999999999974      41.342500000000001      32.355000000000004
   113   1      3.5949999999999989      39.545000000000002      35.950000000000003
   114   1      3.5949999999999989      41.342500000000001      37.747500000000002
   115   1      5.3924999999999974      39.545000000000002      37.747500000000002
   116   1      5.3924999999999974      41.342500000000001      35.950000000000003
   117   1      3.5949999999999989      39.545000000000002      39.545000000000002
   118   1      3.5949999999999989      41.342500000000001      41.342500000000001
   119   1      5.3924999999999974      39.545000000000002      41.342500000000001
   120   1      5.3924999999999974      41.342500000000001      39.545000000000002
   121   1      3.5949999999999989      39.545000000000002      43.140000000000001
   122   1      3.5949999999999989      41.342500000000001                 44.9375
   123   1      5.3924999999999974      39.545000000000002                 44.9375
   124   1      5.3924999999999974      41.342500000000001      43.140000000000001
   125   1      3.5949999999999989      39.545000000000002      46.735000000000007
   126   1      3.5949999999999989      41.342500000000001      48.532500000000006
   127   1      5.3924999999999974      39.545000000000002      48.532500000000006
   128   1      5.3924999999999974      41.342500000000001      46.735000000000007
   129   1      3.5949999999999989      39.545000000000002      50.329999999999998
   130   1      3.5949999999999989      41.342500000000001      52.127500000000012
   131   1      5.3924999999999974      39.545000000000002      52.127500000000012
   132   1      5.3924999999999974      41.342500000000001      50.329999999999998
   133   1      3.5949999999999989      39.545000000000002      53.925000000000004
   134   1      5.3924999999999974      39.545000000000002      55.722500000000004
   135   1      5.3924999999999974      41.342500000000001      53.925000000000004
   136   1      5.3924999999999974      41.342500000000001      57.520000000000003
   137   1      5.3924999999999974      43.140000000000001      30.557500000000005
   138   1      5.3924999999999974                 44.9375      28.760000000000005
   139   1      3.5949999999999989      43.140000000000001      32.355000000000004
   140   1      3.5949999999999989                 44.9375      34.152500000000003
   141   1      5.3924999999999974      43.140000000000001      34.152500000000003
   142   1      5.3924999999999974                 44.9375      32.355000000000004
   143   1      3.5949999999999989      43.140000000000001      35.950000000000003
   144   1      3.5949999999999989                 44.9375      37.747500000000002
   145   1      5.3924999999999974      43.140000000000001      37.747500000000002
   146   1      5.3924999999999974                 44.9375      35.950000000000003
   147   1      3.5949999999999989      43.140000000000001      39.545000000000002
   148   1      3.5949999999999989                 44.9375      41.342500000000001
   149   1      5.3924999999999974      43.140000000000001      41.342500000000001
   150   1      5.3924999999999974                 44.9375      39.545000000000002
   151   1      3.5949999999999989      43.140000000000001      43.140000000000001
   152   1      3.5949999999999989                 44.9375                 44.9375
   153   1      5.3924999999999974      43.140000000000001                 44.9375
   154   1      5.3924999999999974                 44.9375      43.140000000000001
   155   1      3.5949999999999989      43.140000000000001      46.735000000000007
   156   1      3.5949999999999989                 44.9375      48.532500000000006
   157   1      5.3924999999999974      43.140000000000001      48.532500000000006
   158   1      5.3924999999999974                 44.9375      46.735000000000007
   159   1      3.5949999999999989      43.140000000000001      50.329999999999998
   160   1      3.5949999999999989                 44.9375      52.127500000000012
   161   1      5.3924999999999974      43.140000000000001      52.127500000000012
   162   1      5.3924999999999974                 44.9375      50.329999999999998
   163   1      3.5949999999999989      43.140000000000001      53.925000000000004
   164   1      5.3924999999999974      43.140000000000001      55.722500000000004
   165   1      5.3924999999999974                 44.9375      53.925000000000004
   166   1      5.3924999999999974                 44.9375      57.520000000000003
   167   1      5.3924999999999974      46.735000000000007      30.557500000000005
   168   1      5.3924999999999974      48.532500000000006      28.760000000000005
   169   1      3.5949999999999989      46.735000000000007      32.355000000000004
   170   1      3.5949999999999989      48.532500000000006      34.152500000000003
   171   1      5.3924999999999974      46.735000000000007      34.152500000000003
   172   1      5.3924999999999974      48.532500000000006      32.355000000000004
   173   1      3.5949999999999989      46.735000000000007      35.950000000000003
   174   1      3.5949999999999989      48.532500000000006      37.747500000000002
   175   1      5.3924999999999974      46.735000000000007      37.747500000000002
   176   1      5.3924999999999974      48.532500000000006      35.950000000000003
   177   1      3.5949999999999989      46.735000000000007      39.545000000000002
   178   1      3.5949999999999989      48.532500000000006      41.342500000000001
   179   1      5.3924999999999974      46.735000000000007      41.342500000000001
   180   1      5.3924999999999974      48.532500000000006      39.545000000000002
   181   1      3.5949999999999989      46.735000000000007      43.140000000000001
   182   1      3.5949999999999989      48.532500000000006                 44.9375
   183   1      5.3924999999999974      46.735000000000007                 44.9375
   184   1      5.3924999999999974      48.532500000000006      43.140000000000001
   185   1      3.5949999999999989      46.735000000000007      46.735000000000007
   186   1      3.5949999999999989      48.532500000000006      48.532500000000006
   187   1      5.3924999999999974      46.735000000000007      48.532500000000006
   188   1      5.3924999999999974      48.532500000000006      46.735000000000007
   189   1      3.5949999999999989      46.735000000000007      50.329999999999998
   190   1      3.5949999999999989      48.532500000000006      52.127500000000012
   191   1      5.3924999999999974      46.735000000000007      52.127500000000012
   192   1      5.3924999999999974      48.532500000000006      50.329999999999998
   193   1      3.5949999999999989      46.735000000000007      53.925000000000004
   194   1      5.3924999999999974      46.735000000000007      55.722500000000004
   195   1      5.3924999999999974      48.532500000000006      53.925000000000004
   196   1      5.3924999999999974      48.532500000000006      57.520000000000003
   197   1      5.3924999999999974      50.329999999999998      30.557500000000005
   198   1      5.3924999999999974      52.127500000000012      28.760000000000005
   199   1      3.5949999999999989      50.329999999999998      32.355000000000004
   200   1      3.5949999999999989      52.127500000000012      34.152500000000003
   201   1      5.3924999999999974      50.329999999999998      34.152500000000003
   202   1      5.3924999999999974      52.127500000000012      32.355000000000004
   203   1      3.5949999999999989      50.329999999999998      35.950000000000003
   204   1      3.5949999999999989      52.127500000000012      37.747500000000002
   205   1      5.3924999999999974      50.329999999999998      37.747500000000002
   206   1      5.3924999999999974      52.127500000000012      35.950000000000003
   207   1      3.5949999999999989      50.329999999999998      39.545000000000002
   208   1      3.5949999999999989      52.127500000000012      41.342500000000001
   209   1      5.3924999999999974      50.329999999999998      41.342500000000001
   210   1      5.3924999999999974      52.127500000000012      39.545000000000002
   211   1      3.5949999999999989      50.329999999999998      43.140000000000001
   212   1      3.5949999999999989      52.127500000000012                 44.9375
   213   1      5.3924999999999974      50.329999999999998                 44.9375
   214   1      5.3924999999999974      52.127500000000012      43.140000000000001
   215   1      3.5949999999999989      50.329999999999998      46.735000000000007
   216   1      3.5949999999999989      52.127500000000012      48.532500000000006
   217   1      5.3924999999999974      50.329999999999998      48.532500000000006
   218   1      5.3924999999999974      52.127500000000012      46.735000000000007
   219   1      3.5949999999999989      50.329999999999998      50.329999999999998
   220   1      3.5949999999999989      52.127500000000012      52.127500000000012
   221   1      5.3924999999999974      50.329999999999998      52.127500000000012
   222   1      5.3924999999999974      52.127500000000012      50.329999999999998
   223   1      3.5949999999999989      50.329999999999998      53.925000000000004
   224   1      5.3924999999999974      50.329999999999998      55.722500000000004
   225   1      5.3924999999999974      52.127500000000012      53.925000000000004
   226   1      5.3924999999999974      52.127500000000012      57.520000000000003
   227   1      5.3924999999999974      53.925000000000004      30.557500000000005
   228   1      5.3924999999999974      55.722500000000004      28.760000000000005
   229   1      3.5949999999999989      53.925000000000004      32.355000000000004
   230   1      5.3924999999999974      53.925000000000004      34.152500000000003
   231   1      5.3924999999999974      55.722500000000004      32.355000000000004
   232   1      3.5949999999999989      53.925000000000004      35.950000000000003
   233   1      5.3924999999999974      53.925000000000004      37.747500000000002
   234   1      5.3924999999999974      55.722500000000004      35.950000000000003
   235   1      3.5949999999999989      53.925000000000004      39.545000000000002
   236   1      5.3924999999999974      53.925000000000004      41.342500000000001
   237   1      5.3924999999999974      55.722500000000004      39.545000000000002
   238   1      3.5949999999999989      53.925000000000004      43.140000000000001
   239   1      5.3924999999999974      53.925000000000004                 44.9375
   240   1      5.3924999999999974      55.722500000000004      43.140000000000001
   241   1      3.5949999999999989      53.925000000000004      46.735000000000007
   242   1      5.3924999999999974      53.925000000000004      48.532500000000006
   243   1      5.3924999999999974      55.722500000000004      46.735000000000007
   244   1      3.5949999999999989      53.925000000000004      50.329999999999998
   245   1      5.3924999999999974      53.925000000000004      52.127500000000012
   246   1      5.3924999999999974      55.722500000000004      50.329999999999998
   247   1      3.5949999999999989      53.925000000000004      53.925000000000004
   248   1      5.3924999999999974      53.925000000000004      55.722500000000004
   249   1      5.3924999999999974      55.722500000000004      53.925000000000004
   250   1      5.3924999999999974      55.722500000000004      57.520000000000003
   251   1      5.3924999999999974      57.520000000000003      30.557500000000005
   252   1      5.3924999999999974      57.520000000000003      34.152500000000003
   253   1      5.3924999999999974      57.520000000000003      37.747500000000002
   254   1      5.3924999999999974      57.520000000000003      41.342500000000001
   255   1      5.3924999999999974      57.520000000000003                 44.9375
   256   1      5.3924999999999974      57.520000000000003      48.532500000000006
   257   1      5.3924999999999974      57.520000000000003      52.127500000000012
   258   1      5.3924999999999974      57.520000000000003      55.722500000000004
   259   1      8.9874999999999972      19.772500000000001      21.570000000000004
   260   1      8.9874999999999972      19.772500000000001      25.164999999999999
   261   1      8.9874999999999972      19.772500000000001      28.760000000000005
   262   1      8.9874999999999972      19.772500000000001      32.355000000000004
   263   1      8.9874999999999972      19.772500000000001      35.950000000000003
   264   1      8.9874999999999972      19.772500000000001      39.545000000000002
   265   1      8.9874999999999972      19.772500000000001      43.140000000000001
   266   1      8.9874999999999972      19.772500000000001      46.735000000000007
   267   1      8.9874999999999972      19.772500000000001      50.329999999999998
   268   1      8.9874999999999972      19.772500000000001      53.925000000000004
   269   1      8.9874999999999972      19.772500000000001      57.520000000000003
   270   1      8.9874999999999972      19.772500000000001      61.115000000000009
   271   1      8.9874999999999972      19.772500000000001      64.710000000000008
   272   1      8.9874999999999972      21.570000000000004      19.772500000000001
   273   1      7.1899999999999977      23.367500000000003      23.367500000000003
   274   1      8.9874999999999972      21.570000000000004      23.367500000000003
   275   1      8.9874999999999972      23.367500000000003      21.570000000000004
   276   1      7.1899999999999977      23.367500000000003      26.962500000000002
   277   1      8.9874999999999972      21.570000000000004      26.962500000000002
   278   1      8.9874999999999972      23.367500000000003      25.164999999999999
   279   1      7.1899999999999977      23.367500000000003      30.557500000000005
   280   1      8.9874999999999972      21.570000000000004      30.557500000000005
   281   1      8.9874999999999972      23.367500000000003      28.760000000000005
   282   1      7.1899999999999977      23.367500000000003      34.152500000000003
   283   1      8.9874999999999972      21.570000000000004      34.152500000000003
   284   1      8.9874999999999972      23.367500000000003      32.355000000000004
   285   1      7.1899999999999977      23.367500000000003      37.747500000000002
   286   1      8.9874999999999972      21.570000000000004      37.747500000000002
   287   1      8.9874999999999972      23.367500000000003      35.950000000000003
   288   1      7.1899999999999977      23.367500000000003      41.342500000000001
   289   1      8.9874999999999972      21.570000000000004      41.342500000000001
   290   1      8.9874999999999972      23.367500000000003      39.545000000000002
   291   1      7.1899999999999977      23.367500000000003                 44.9375
   292   1      8.9874999999999972      21.570000000000004                 44.9375
   293   1      8.9874999999999972      23.367500000000003      43.140000000000001
   294   1      7.1899999999999977      23.367500000000003      48.532500000000006
   295   1      8.9874999999999972      21.570000000000004      48.532500000000006
   296   1      8.9874999999999972      23.367500000000003      46.735000000000007
   297   1      7.1899999999999977      23.367500000000003      52.127500000000012
   298   1      8.9874999999999972      21.570000000000004      52.127500000000012
   299   1      8.9874999999999972      23.367500000000003      50.329999999999998
   300   1      7.1899999999999977      23.367500000000003      55.722500000000004
   301   1      8.9874999999999972      21.570000000000004      55.722500000000004
   302   1      8.9874999999999972      23.367500000000003      53.925000000000004
   303   1      7.1899999999999977      23.367500000000003      59.317499999999995
   304   1      8.9874999999999972      21.570000000000004      59.317499999999995
   305   1      8.9874999999999972      23.367500000000003      57.520000000000003
   306   1      7.1899999999999977      23.367500000000003      62.912500000000001
   307   1      8.9874999999999972      21.570000000000004      62.912500000000001
   308   1      8.9874999999999972      23.367500000000003      61.115000000000009
   309   1      8.9874999999999972      21.570000000000004      66.507500000000007
   310   1      8.9874999999999972      23.367500000000003      64.710000000000008
   311   1      8.9874999999999972      25.164999999999999      19.772500000000001
   312   1      7.1899999999999977      26.962500000000002      23.367500000000003
   313   1      8.9874999999999972      25.164999999999999      23.367500000000003
   314   1      8.9874999999999972      26.962500000000002      21.570000000000004
   315   1      7.1899999999999977      25.164999999999999      25.164999999999999
   316   1      7.1899999999999977      26.962500000000002      26.962500000000002
   317   1      8.9874999999999972      25.164999999999999      26.962500000000002
   318   1      8.9874999999999972      26.962500000000002      25.164999999999999
   319   1      7.1899999999999977      25.164999999999999      28.760000000000005
   320   1      7.1899999999999977      26.962500000000002      30.557500000000005
   321   1      8.9874999999999972      25.164999999999999      30.557500000000005
   322   1      8.9874999999999972      26.962500000000002      28.760000000000005
   323   1      7.1899999999999977      25.164999999999999      32.355000000000004
   324   1      7.1899999999999977      26.962500000000002      34.152500000000003
   325   1      8.9874999999999972      25.164999999999999      34.152500000000003
   326   1      8.9874999999999972      26.962500000000002      32.355000000000004
   327   1      7.1899999999999977      25.164999999999999      35.950000000000003
   328   1      7.1899999999999977      26.962500000000002      37.747500000000002
   329   1      8.9874999999999972      25.164999999999999      37.747500000000002
   330   1      8.9874999999999972      26.962500000000002      35.950000000000003
   331   1      7.1899999999999977      25.164999999999999      39.545000000000002
   332   1      7.1899999999999977      26.962500000000002      41.342500000000001
   333   1      8.9874999999999972      25.164999999999999      41.342500000000001
   334   1      8.9874999999999972      26.962500000000002      39.545000000000002
   335   1      7.1899999999999977      25.164999999999999      43.140000000000001
   336   1      7.1899999999999977      26.962500000000002                 44.9375
   337   1      8.9874999999999972      25.164999999999999                 44.9375
   338   1      8.9874999999999972      26.962500000000002      43.140000000000001
   339   1      7.1899999999999977      25.164999999999999      46.735000000000007
   340   1      7.1899999999999977      26.962500000000002      48.532500000000006
   341   1      8.9874999999999972      25.164999999999999      48.532500000000006
   342   1      8.9874999999999972      26.962500000000002      46.735000000000007
   343   1      7.1899999999999977      25.164999999999999      50.329999999999998
   344   1      7.1899999999999977      26.962500000000002      52.127500000000012
   345   1      8.9874999999999972      25.164999999999999      52.127500000000012
   346   1      8.9874999999999972      26.962500000000002      50.329999999999998
   347   1      7.1899999999999977      25.164999999999999      53.925000000000004
   348   1      7.1899999999999977      26.962500000000002      55.722500000000004
   349   1      8.9874999999999972      25.164999999999999      55.722500000000004
   350   1      8.9874999999999972      26.962500000000002      53.925000000000004
   351   1      7.1899999999999977      25.164999999999999      57.520000000000003
   352   1      7.1899999999999977      26.962500000000002      59.317499999999995
   353   1      8.9874999999999972      25.164999999999999      59.317499999999995
   354   1      8.9874999999999972      26.962500000000002      57.520000000000003
   355   1      7.1899999999999977      25.164999999999999      61.115000000000009
   356   1      7.1899999999999977      26.962500000000002      62.912500000000001
   357   1      8.9874999999999972      25.164999999999999      62.912500000000001
   358   1      8.9874999999999972      26.962500000000002      61.115000000000009