model_files/Au/Au_30000/Au_311/data.Au_311_fcc_30453 (written by ASE) 

30453 	 atoms 
1  atom types
0.0                     102  xlo xhi
0.0                     102  ylo yhi
0.0                     102  zlo zhi


Atoms 

     1   1  7.1054273576010019e-15      48.960000000000008      51.000000000000014
     2   1  7.1054273576010019e-15      51.000000000000014      48.960000000000008
     3   1  7.1054273576010019e-15      51.000000000000014      53.039999999999999
     4   1  7.1054273576010019e-15      53.039999999999999      51.000000000000014
     5   1      4.0800000000000054      36.720000000000006      51.000000000000014
     6   1      4.0800000000000054      38.760000000000005      48.960000000000008
     7   1      4.0800000000000054      40.800000000000004      46.920000000000009
     8   1      4.0800000000000054      38.760000000000005      53.039999999999999
     9   1      4.0800000000000054      40.800000000000004      51.000000000000014
    10   1      4.0800000000000054      40.800000000000004      55.080000000000013
    11   1      4.0800000000000054      42.840000000000011       44.88000000000001
    12   1      4.0800000000000054       44.88000000000001      42.840000000000011
    13   1      2.0400000000000063       44.88000000000001      48.960000000000008
    14   1      4.0800000000000054      42.840000000000011      48.960000000000008
    15   1      4.0800000000000054       44.88000000000001      46.920000000000009
    16   1      2.0400000000000063      42.840000000000011      51.000000000000014
    17   1      2.0400000000000063       44.88000000000001      53.039999999999999
    18   1      4.0800000000000054      42.840000000000011      53.039999999999999
    19   1      4.0800000000000054       44.88000000000001      51.000000000000014
    20   1      4.0800000000000054      42.840000000000011      57.120000000000005
    21   1      4.0800000000000054       44.88000000000001      55.080000000000013
    22   1      4.0800000000000054       44.88000000000001      59.160000000000011
    23   1      4.0800000000000054      46.920000000000009      40.800000000000004
    24   1      4.0800000000000054      48.960000000000008      38.760000000000005
    25   1      2.0400000000000063      48.960000000000008       44.88000000000001
    26   1      4.0800000000000054      46.920000000000009       44.88000000000001
    27   1      4.0800000000000054      48.960000000000008      42.840000000000011
    28   1      2.0400000000000063      46.920000000000009      46.920000000000009
    29   1      2.0400000000000063      48.960000000000008      48.960000000000008
    30   1      4.0800000000000054      46.920000000000009      48.960000000000008
    31   1      4.0800000000000054      48.960000000000008      46.920000000000009
    32   1      2.0400000000000063      46.920000000000009      51.000000000000014
    33   1      2.0400000000000063      48.960000000000008      53.039999999999999
    34   1      4.0800000000000054      46.920000000000009      53.039999999999999
    35   1      4.0800000000000054      48.960000000000008      51.000000000000014
    36   1      2.0400000000000063      46.920000000000009      55.080000000000013
    37   1      2.0400000000000063      48.960000000000008      57.120000000000005
    38   1      4.0800000000000054      46.920000000000009      57.120000000000005
    39   1      4.0800000000000054      48.960000000000008      55.080000000000013
    40   1      4.0800000000000054      46.920000000000009       61.20000000000001
    41   1      4.0800000000000054      48.960000000000008      59.160000000000011
    42   1      4.0800000000000054      48.960000000000008      63.240000000000009
    43   1      4.0800000000000054      51.000000000000014      36.720000000000006
    44   1      4.0800000000000054      51.000000000000014      40.800000000000004
    45   1      4.0800000000000054      53.039999999999999      38.760000000000005
    46   1      2.0400000000000063      51.000000000000014      42.840000000000011
    47   1      2.0400000000000063      53.039999999999999       44.88000000000001
    48   1      4.0800000000000054      51.000000000000014       44.88000000000001
    49   1      4.0800000000000054      53.039999999999999      42.840000000000011
    50   1      2.0400000000000063      51.000000000000014      46.920000000000009
    51   1      2.0400000000000063      53.039999999999999      48.960000000000008
    52   1      4.0800000000000054      51.000000000000014      48.960000000000008
    53   1      4.0800000000000054      53.039999999999999      46.920000000000009
    54   1      2.0400000000000063      51.000000000000014      51.000000000000014
    55   1      2.0400000000000063      53.039999999999999      53.039999999999999
    56   1      4.0800000000000054      51.000000000000014      53.039999999999999
    57   1      4.0800000000000054      53.039999999999999      51.000000000000014
    58   1      2.0400000000000063      51.000000000000014      55.080000000000013
    59   1      2.0400000000000063      53.039999999999999      57.120000000000005
    60   1      4.0800000000000054      51.000000000000014      57.120000000000005
    61   1      4.0800000000000054      53.039999999999999      55.080000000000013
    62   1      2.0400000000000063      51.000000000000014      59.160000000000011
    63   1      4.0800000000000054      51.000000000000014       61.20000000000001
    64   1      4.0800000000000054      53.039999999999999      59.160000000000011
    65   1      4.0800000000000054      51.000000000000014      65.280000000000015
    66   1      4.0800000000000054      53.039999999999999      63.240000000000009
    67   1      4.0800000000000054      55.080000000000013      40.800000000000004
    68   1      4.0800000000000054      55.080000000000013       44.88000000000001
    69   1      4.0800000000000054      57.120000000000005      42.840000000000011
    70   1      2.0400000000000063      55.080000000000013      46.920000000000009
    71   1      2.0400000000000063      57.120000000000005      48.960000000000008
    72   1      4.0800000000000054      55.080000000000013      48.960000000000008
    73   1      4.0800000000000054      57.120000000000005      46.920000000000009
    74   1      2.0400000000000063      55.080000000000013      51.000000000000014
    75   1      2.0400000000000063      57.120000000000005      53.039999999999999
    76   1      4.0800000000000054      55.080000000000013      53.039999999999999
    77   1      4.0800000000000054      57.120000000000005      51.000000000000014
    78   1      2.0400000000000063      55.080000000000013      55.080000000000013
    79   1      4.0800000000000054      55.080000000000013      57.120000000000005
    80   1      4.0800000000000054      57.120000000000005      55.080000000000013
    81   1      4.0800000000000054      55.080000000000013       61.20000000000001
    82   1      4.0800000000000054      57.120000000000005      59.160000000000011
    83   1      4.0800000000000054      59.160000000000011       44.88000000000001
    84   1      4.0800000000000054      59.160000000000011      48.960000000000008
    85   1      4.0800000000000054       61.20000000000001      46.920000000000009
    86   1      2.0400000000000063      59.160000000000011      51.000000000000014
    87   1      4.0800000000000054      59.160000000000011      53.039999999999999
    88   1      4.0800000000000054       61.20000000000001      51.000000000000014
    89   1      4.0800000000000054      59.160000000000011      57.120000000000005
    90   1      4.0800000000000054       61.20000000000001      55.080000000000013
    91   1      4.0800000000000054      63.240000000000009      48.960000000000008
    92   1      4.0800000000000054      63.240000000000009      53.039999999999999
    93   1      4.0800000000000054      65.280000000000015      51.000000000000014
    94   1      8.1600000000000037      24.480000000000008      51.000000000000014
    95   1      8.1600000000000037      26.520000000000014      48.960000000000008
    96   1      8.1600000000000037      28.560000000000009      46.920000000000009
    97   1      8.1600000000000037      26.520000000000014      53.039999999999999
    98   1      8.1600000000000037      28.560000000000009      51.000000000000014
    99   1      8.1600000000000037      28.560000000000009      55.080000000000013
   100   1      8.1600000000000037      30.600000000000009       44.88000000000001
   101   1      8.1600000000000037      32.640000000000008      42.840000000000011
   102   1      6.1200000000000117      32.640000000000008      48.960000000000008
   103   1      8.1600000000000037      30.600000000000009      48.960000000000008
   104   1      8.1600000000000037      32.640000000000008      46.920000000000009
   105   1      6.1200000000000117      30.600000000000009      51.000000000000014
   106   1      6.1200000000000117      32.640000000000008      53.039999999999999
   107   1      8.1600000000000037      30.600000000000009      53.039999999999999
   108   1      8.1600000000000037      32.640000000000008      51.000000000000014
   109   1      8.1600000000000037      30.600000000000009      57.120000000000005
   110   1      8.1600000000000037      32.640000000000008      55.080000000000013
   111   1      8.1600000000000037      32.640000000000008      59.160000000000011
   112   1      8.1600000000000037      34.680000000000007      40.800000000000004
   113   1      8.1600000000000037      36.720000000000006      38.760000000000005
   114   1      6.1200000000000117      36.720000000000006       44.88000000000001
   115   1      8.1600000000000037      34.680000000000007       44.88000000000001
   116   1      8.1600000000000037      36.720000000000006      42.840000000000011
   117   1      6.1200000000000117      34.680000000000007      46.920000000000009
   118   1      6.1200000000000117      36.720000000000006      48.960000000000008
   119   1      8.1600000000000037      34.680000000000007      48.960000000000008
   120   1      8.1600000000000037      36.720000000000006      46.920000000000009
   121   1      6.1200000000000117      34.680000000000007      51.000000000000014
   122   1      6.1200000000000117      36.720000000000006      53.039999999999999
   123   1      8.1600000000000037      34.680000000000007      53.039999999999999
   124   1      8.1600000000000037      36.720000000000006      51.000000000000014
   125   1      6.1200000000000117      34.680000000000007      55.080000000000013
   126   1      6.1200000000000117      36.720000000000006      57.120000000000005
   127   1      8.1600000000000037      34.680000000000007      57.120000000000005
   128   1      8.1600000000000037      36.720000000000006      55.080000000000013
   129   1      8.1600000000000037      34.680000000000007       61.20000000000001
   130   1      8.1600000000000037      36.720000000000006      59.160000000000011
   131   1      8.1600000000000037      36.720000000000006      63.240000000000009
   132   1      8.1600000000000037      38.760000000000005      36.720000000000006
   133   1      8.1600000000000037      40.800000000000004      34.680000000000007
   134   1      6.1200000000000117      40.800000000000004      40.800000000000004
   135   1      8.1600000000000037      38.760000000000005      40.800000000000004
   136   1      8.1600000000000037      40.800000000000004      38.760000000000005
   137   1      6.1200000000000117      38.760000000000005      42.840000000000011
   138   1      6.1200000000000117      40.800000000000004       44.88000000000001
   139   1      8.1600000000000037      38.760000000000005       44.88000000000001
   140   1      8.1600000000000037      40.800000000000004      42.840000000000011
   141   1      6.1200000000000117      38.760000000000005      46.920000000000009
   142   1      6.1200000000000117      40.800000000000004      48.960000000000008
   143   1      8.1600000000000037      38.760000000000005      48.960000000000008
   144   1      8.1600000000000037      40.800000000000004      46.920000000000009
   145   1      6.1200000000000117      38.760000000000005      51.000000000000014
   146   1      6.1200000000000117      40.800000000000004      53.039999999999999
   147   1      8.1600000000000037      38.760000000000005      53.039999999999999
   148   1      8.1600000000000037      40.800000000000004      51.000000000000014
   149   1      6.1200000000000117      38.760000000000005      55.080000000000013
   150   1      6.1200000000000117      40.800000000000004      57.120000000000005
   151   1      8.1600000000000037      38.760000000000005      57.120000000000005
   152   1      8.1600000000000037      40.800000000000004      55.080000000000013
   153   1      6.1200000000000117      38.760000000000005      59.160000000000011
   154   1      6.1200000000000117      40.800000000000004       61.20000000000001
   155   1      8.1600000000000037      38.760000000000005       61.20000000000001
   156   1      8.1600000000000037      40.800000000000004      59.160000000000011
   157   1      8.1600000000000037      38.760000000000005      65.280000000000015
   158   1      8.1600000000000037      40.800000000000004      63.240000000000009
   159   1      8.1600000000000037      40.800000000000004      67.320000000000007
   160   1      8.1600000000000037      42.840000000000011      32.640000000000008
   161   1      8.1600000000000037       44.88000000000001      30.600000000000009
   162   1      6.1200000000000117       44.88000000000001      36.720000000000006
   163   1      8.1600000000000037      42.840000000000011      36.720000000000006
   164   1      8.1600000000000037       44.88000000000001      34.680000000000007
   165   1      6.1200000000000117      42.840000000000011      38.760000000000005
   166   1      6.1200000000000117       44.88000000000001      40.800000000000004
   167   1      8.1600000000000037      42.840000000000011      40.800000000000004
   168   1      8.1600000000000037       44.88000000000001      38.760000000000005
   169   1      6.1200000000000117      42.840000000000011      42.840000000000011
   170   1      6.1200000000000117       44.88000000000001       44.88000000000001
   171   1      8.1600000000000037      42.840000000000011       44.88000000000001
   172   1      8.1600000000000037       44.88000000000001      42.840000000000011
   173   1      6.1200000000000117      42.840000000000011      46.920000000000009
   174   1      6.1200000000000117       44.88000000000001      48.960000000000008
   175   1      8.1600000000000037      42.840000000000011      48.960000000000008
   176   1      8.1600000000000037       44.88000000000001      46.920000000000009
   177   1      6.1200000000000117      42.840000000000011      51.000000000000014
   178   1      6.1200000000000117       44.88000000000001      53.039999999999999
   179   1      8.1600000000000037      42.840000000000011      53.039999999999999
   180   1      8.1600000000000037       44.88000000000001      51.000000000000014
   181   1      6.1200000000000117      42.840000000000011      55.080000000000013
   182   1      6.1200000000000117       44.88000000000001      57.120000000000005
   183   1      8.1600000000000037      42.840000000000011      57.120000000000005
   184   1      8.1600000000000037       44.88000000000001      55.080000000000013
   185   1      6.1200000000000117      42.840000000000011      59.160000000000011
   186   1      6.1200000000000117       44.88000000000001       61.20000000000001
   187   1      8.1600000000000037      42.840000000000011       61.20000000000001
   188   1      8.1600000000000037       44.88000000000001      59.160000000000011
   189   1      6.1200000000000117      42.840000000000011      63.240000000000009
   190   1      6.1200000000000117       44.88000000000001      65.280000000000015
   191   1      8.1600000000000037      42.840000000000011      65.280000000000015
   192   1      8.1600000000000037       44.88000000000001      63.240000000000009
   193   1      8.1600000000000037      42.840000000000011      69.360000000000014
   194   1      8.1600000000000037       44.88000000000001      67.320000000000007
   195   1      8.1600000000000037       44.88000000000001      71.400000000000006
   196   1      8.1600000000000037      46.920000000000009      28.560000000000009
   197   1      8.1600000000000037      48.960000000000008      26.520000000000014
   198   1      6.1200000000000117      48.960000000000008      32.640000000000008
   199   1      8.1600000000000037      46.920000000000009      32.640000000000008
   200   1      8.1600000000000037      48.960000000000008      30.600000000000009
   201   1      6.1200000000000117      46.920000000000009      34.680000000000007
   202   1      6.1200000000000117      48.960000000000008      36.720000000000006
   203   1      8.1600000000000037      46.920000000000009      36.720000000000006
   204   1      8.1600000000000037      48.960000000000008      34.680000000000007
   205   1      6.1200000000000117      46.920000000000009      38.760000000000005
   206   1      6.1200000000000117      48.960000000000008      40.800000000000004
   207   1      8.1600000000000037      46.920000000000009      40.800000000000004
   208   1      8.1600000000000037      48.960000000000008      38.760000000000005
   209   1      6.1200000000000117      46.920000000000009      42.840000000000011
   210   1      6.1200000000000117      48.960000000000008       44.88000000000001
   211   1      8.1600000000000037      46.920000000000009       44.88000000000001
   212   1      8.1600000000000037      48.960000000000008      42.840000000000011
   213   1      6.1200000000000117      46.920000000000009      46.920000000000009
   214   1      6.1200000000000117      48.960000000000008      48.960000000000008
   215   1      8.1600000000000037      46.920000000000009      48.960000000000008
   216   1      8.1600000000000037      48.960000000000008      46.920000000000009
   217   1      6.1200000000000117      46.920000000000009      51.000000000000014
   218   1      6.1200000000000117      48.960000000000008      53.039999999999999
   219   1      8.1600000000000037      46.920000000000009      53.039999999999999
   220   1      8.1600000000000037      48.960000000000008      51.000000000000014
   221   1      6.1200000000000117      46.920000000000009      55.080000000000013
   222   1      6.1200000000000117      48.960000000000008      57.120000000000005
   223   1      8.1600000000000037      46.920000000000009      57.120000000000005
   224   1      8.1600000000000037      48.960000000000008      55.080000000000013
   225   1      6.1200000000000117      46.920000000000009      59.160000000000011
   226   1      6.1200000000000117      48.960000000000008       61.20000000000001
   227   1      8.1600000000000037      46.920000000000009       61.20000000000001
   228   1      8.1600000000000037      48.960000000000008      59.160000000000011
   229   1      6.1200000000000117      46.920000000000009      63.240000000000009
   230   1      6.1200000000000117      48.960000000000008      65.280000000000015
   231   1      8.1600000000000037      46.920000000000009      65.280000000000015
   232   1      8.1600000000000037      48.960000000000008      63.240000000000009
   233   1      6.1200000000000117      46.920000000000009      67.320000000000007
   234   1      6.1200000000000117      48.960000000000008      69.360000000000014
   235   1      8.1600000000000037      46.920000000000009      69.360000000000014
   236   1      8.1600000000000037      48.960000000000008      67.320000000000007
   237   1      8.1600000000000037      46.920000000000009      73.440000000000012
   238   1      8.1600000000000037      48.960000000000008      71.400000000000006
   239   1      8.1600000000000037      48.960000000000008      75.480000000000004
   240   1      8.1600000000000037      51.000000000000014      24.480000000000008
   241   1      8.1600000000000037      51.000000000000014      28.560000000000009
   242   1      8.1600000000000037      53.039999999999999      26.520000000000014
   243   1      6.1200000000000117      51.000000000000014      30.600000000000009
   244   1      6.1200000000000117      53.039999999999999      32.640000000000008
   245   1      8.1600000000000037      51.000000000000014      32.640000000000008
   246   1      8.1600000000000037      53.039999999999999      30.600000000000009
   247   1      6.1200000000000117      51.000000000000014      34.680000000000007
   248   1      6.1200000000000117      53.039999999999999      36.720000000000006
   249   1      8.1600000000000037      51.000000000000014      36.720000000000006
   250   1      8.1600000000000037      53.039999999999999      34.680000000000007
   251   1      6.1200000000000117      51.000000000000014      38.760000000000005
   252   1      6.1200000000000117      53.039999999999999      40.800000000000004
   253   1      8.1600000000000037      51.000000000000014      40.800000000000004
   254   1      8.1600000000000037      53.039999999999999      38.760000000000005
   255   1      6.1200000000000117      51.000000000000014      42.840000000000011
   256   1      6.1200000000000117      53.039999999999999       44.88000000000001
   257   1      8.1600000000000037      51.000000000000014       44.88000000000001
   258   1      8.1600000000000037      53.039999999999999      42.840000000000011
   259   1      6.1200000000000117      51.000000000000014      46.920000000000009
   260   1      6.1200000000000117      53.039999999999999      48.960000000000008
   261   1      8.1600000000000037      51.000000000000014      48.960000000000008
   262   1      8.1600000000000037      53.039999999999999      46.920000000000009
   263   1      6.1200000000000117      51.000000000000014      51.000000000000014
   264   1      6.1200000000000117      53.039999999999999      53.039999999999999
   265   1      8.1600000000000037      51.000000000000014      53.039999999999999
   266   1      8.1600000000000037      53.039999999999999      51.000000000000014
   267   1      6.1200000000000117      51.000000000000014      55.080000000000013
   268   1      6.1200000000000117      53.039999999999999      57.120000000000005
   269   1      8.1600000000000037      51.000000000000014      57.120000000000005
   270   1      8.1600000000000037      53.039999999999999      55.080000000000013
   271   1      6.1200000000000117      51.000000000000014      59.160000000000011
   272   1      6.1200000000000117      53.039999999999999       61.20000000000001
   273   1      8.1600000000000037      51.000000000000014       61.20000000000001
   274   1      8.1600000000000037      53.039999999999999      59.160000000000011
   275   1      6.1200000000000117      51.000000000000014      63.240000000000009
   276   1      6.1200000000000117      53.039999999999999      65.280000000000015
   277   1      8.1600000000000037      51.000000000000014      65.280000000000015
   278   1      8.1600000000000037      53.039999999999999      63.240000000000009
   279   1      6.1200000000000117      51.000000000000014      67.320000000000007
   280   1      6.1200000000000117      53.039999999999999      69.360000000000014
   281   1      8.1600000000000037      51.000000000000014      69.360000000000014
   282   1      8.1600000000000037      53.039999999999999      67.320000000000007
   283   1      6.1200000000000117      51.000000000000014      71.400000000000006
   284   1      8.1600000000000037      51.000000000000014      73.440000000000012
   285   1      8.1600000000000037      53.039999999999999      71.400000000000006
   286   1      8.1600000000000037      51.000000000000014       77.52000000000001
   287   1      8.1600000000000037      53.039999999999999      75.480000000000004
   288   1      8.1600000000000037      55.080000000000013      28.560000000000009
   289   1      8.1600000000000037      55.080000000000013      32.640000000000008
   290   1      8.1600000000000037      57.120000000000005      30.600000000000009
   291   1      6.1200000000000117      55.080000000000013      34.680000000000007
   292   1      6.1200000000000117      57.120000000000005      36.720000000000006
   293   1      8.1600000000000037      55.080000000000013      36.720000000000006
   294   1      8.1600000000000037      57.120000000000005      34.680000000000007
   295   1      6.1200000000000117      55.080000000000013      38.760000000000005
   296   1      6.1200000000000117      57.120000000000005      40.800000000000004
   297   1      8.1600000000000037      55.080000000000013      40.800000000000004
   298   1      8.1600000000000037      57.120000000000005      38.760000000000005
   299   1      6.1200000000000117      55.080000000000013      42.840000000000011
   300   1      6.1200000000000117      57.120000000000005       44.88000000000001
   301   1      8.1600000000000037      55.080000000000013       44.88000000000001
   302   1      8.1600000000000037      57.120000000000005      42.840000000000011
   303   1      6.1200000000000117      55.080000000000013      46.920000000000009
   304   1      6.1200000000000117      57.120000000000005      48.960000000000008
   305   1      8.1600000000000037      55.080000000000013      48.960000000000008
   306   1      8.1600000000000037      57.120000000000005      46.920000000000009
   307   1      6.1200000000000117      55.080000000000013      51.000000000000014
   308   1      6.1200000000000117      57.120000000000005      53.039999999999999
   309   1      8.1600000000000037      55.080000000000013      53.039999999999999
   310   1      8.1600000000000037      57.120000000000005      51.000000000000014
   311   1      6.1200000000000117      55.080000000000013      55.080000000000013
   312   1      6.1200000000000117      57.120000000000005      57.120000000000005
   313   1      8.1600000000000037      55.080000000000013      57.120000000000005
   314   1      8.1600000000000037      57.120000000000005      55.080000000000013
   315   1      6.1200000000000117      55.080000000000013      59.160000000000011
   316   1      6.1200000000000117      57.120000000000005       61.20000000000001
   317   1      8.1600000000000037      55.080000000000013       61.20000000000001
   318   1      8.1600000000000037      57.120000000000005      59.160000000000011
   319   1      6.1200000000000117      55.080000000000013      63.240000000000009
   320   1      6.1200000000000117      57.120000000000005      65.280000000000015
   321   1      8.1600000000000037      55.080000000000013      65.280000000000015
   322   1      8.1600000000000037      57.120000000000005      63.240000000000009
   323   1      6.1200000000000117      55.080000000000013      67.320000000000007
   324   1      8.1600000000000037      55.080000000000013      69.360000000000014
   325   1      8.1600000000000037      57.120000000000005      67.320000000000007
   326   1      8.1600000000000037      55.080000000000013      73.440000000000012
   327   1      8.1600000000000037      57.120000000000005      71.400000000000006
   328   1      8.1600000000000037      59.160000000000011      32.640000000000008
   329   1      8.1600000000000037      59.160000000000011      36.720000000000006
   330   1      8.1600000000000037       61.20000000000001      34.680000000000007
   331   1      6.1200000000000117      59.160000000000011      38.760000000000005
   332   1      6.1200000000000117       61.20000000000001      40.800000000000004
   333   1      8.1600000000000037      59.160000000000011      40.800000000000004
   334   1      8.1600000000000037       61.20000000000001      38.760000000000005
   335   1      6.1200000000000117      59.160000000000011      42.840000000000011
   336   1      6.1200000000000117       61.20000000000001       44.88000000000001
   337   1      8.1600000000000037      59.160000000000011       44.88000000000001
   338   1      8.1600000000000037       61.20000000000001      42.840000000000011
   339   1      6.1200000000000117      59.160000000000011      46.920000000000009
   340   1      6.1200000000000117       61.20000000000001      48.960000000000008
   341   1      8.1600000000000037      59.160000000000011      48.960000000000008
   342   1      8.1600000000000037       61.20000000000001      46.920000000000009
   343   1      6.1200000000000117      59.160000000000011      51.000000000000014
   344   1      6.1200000000000117       61.20000000000001      53.039999999999999
   345   1      8.1600000000000037      59.160000000000011      53.039999999999999
   346   1      8.1600000000000037       61.20000000000001      51.000000000000014
   347   1      6.1200000000000117      59.160000000000011      55.080000000000013
   348   1      6.1200000000000117       61.20000000000001      57.120000000000005
   349   1      8.1600000000000037      59.160000000000011      57.120000000000005
   350   1      8.1600000000000037       61.20000000000001      55.080000000000013
   351   1      6.1200000000000117      59.160000000000011      59.160000000000011
   352   1      6.1200000000000117       61.20000000000001       61.20000000000001
   353   1      8.1600000000000037      59.160000000000011       61.20000000000001
   354   1      8.1600000000000037       61.20000000000001      59.160000000000011
   355   1      6.1200000000000117      59.160000000000011      63.240000000000009
   356   1      8.1600000000000037      59.160000000000011      65.280000000000015
   357   1      8.1600000000000037       61.20000000000001      63.240000000000009
   358   1      8.1600000000000037      59.160000000000011      69.360000000000014