model_files/Co/Co_30000/Co_311/data.Co_311_hcp_30453 (written by ASE) 

30453 	 atoms 
1  atom types
0.0                      62  xlo xhi
0.0                      62  ylo yhi
0.0                      62  zlo zhi


Atoms 

     1   1  3.5527136788005009e-15      30.119999999999997      31.374999999999996
     2   1  3.5527136788005009e-15      31.374999999999996      30.119999999999997
     3   1  3.5527136788005009e-15      31.374999999999996      32.630000000000003
     4   1  3.5527136788005009e-15      32.630000000000003      31.374999999999996
     5   1      2.5100000000000051      22.589999999999996      31.374999999999996
     6   1      2.5100000000000051      23.845000000000002      30.119999999999997
     7   1      2.5100000000000051      25.100000000000001      28.865000000000002
     8   1      2.5100000000000051      23.845000000000002      32.630000000000003
     9   1      2.5100000000000051      25.100000000000001      31.374999999999996
    10   1      2.5100000000000051      25.100000000000001      33.885000000000005
    11   1      2.5100000000000051                  26.355      27.610000000000003
    12   1      2.5100000000000051      27.610000000000003                  26.355
    13   1      1.2550000000000026      27.610000000000003      30.119999999999997
    14   1      2.5100000000000051                  26.355      30.119999999999997
    15   1      2.5100000000000051      27.610000000000003      28.865000000000002
    16   1      1.2550000000000026                  26.355      31.374999999999996
    17   1      1.2550000000000026      27.610000000000003      32.630000000000003
    18   1      2.5100000000000051                  26.355      32.630000000000003
    19   1      2.5100000000000051      27.610000000000003      31.374999999999996
    20   1      2.5100000000000051                  26.355      35.140000000000008
    21   1      2.5100000000000051      27.610000000000003      33.885000000000005
    22   1      2.5100000000000051      27.610000000000003      36.395000000000003
    23   1      2.5100000000000051      28.865000000000002      25.100000000000001
    24   1      2.5100000000000051      30.119999999999997      23.845000000000002
    25   1      1.2550000000000026      30.119999999999997      27.610000000000003
    26   1      2.5100000000000051      28.865000000000002      27.610000000000003
    27   1      2.5100000000000051      30.119999999999997                  26.355
    28   1      1.2550000000000026      28.865000000000002      28.865000000000002
    29   1      1.2550000000000026      30.119999999999997      30.119999999999997
    30   1      2.5100000000000051      28.865000000000002      30.119999999999997
    31   1      2.5100000000000051      30.119999999999997      28.865000000000002
    32   1      1.2550000000000026      28.865000000000002      31.374999999999996
    33   1      1.2550000000000026      30.119999999999997      32.630000000000003
    34   1      2.5100000000000051      28.865000000000002      32.630000000000003
    35   1      2.5100000000000051      30.119999999999997      31.374999999999996
    36   1      1.2550000000000026      28.865000000000002      33.885000000000005
    37   1      1.2550000000000026      30.119999999999997      35.140000000000008
    38   1      2.5100000000000051      28.865000000000002      35.140000000000008
    39   1      2.5100000000000051      30.119999999999997      33.885000000000005
    40   1      2.5100000000000051      28.865000000000002      37.650000000000006
    41   1      2.5100000000000051      30.119999999999997      36.395000000000003
    42   1      2.5100000000000051      30.119999999999997      38.904999999999994
    43   1      2.5100000000000051      31.374999999999996      22.589999999999996
    44   1      2.5100000000000051      31.374999999999996      25.100000000000001
    45   1      2.5100000000000051      32.630000000000003      23.845000000000002
    46   1      1.2550000000000026      31.374999999999996                  26.355
    47   1      1.2550000000000026      32.630000000000003      27.610000000000003
    48   1      2.5100000000000051      31.374999999999996      27.610000000000003
    49   1      2.5100000000000051      32.630000000000003                  26.355
    50   1      1.2550000000000026      31.374999999999996      28.865000000000002
    51   1      1.2550000000000026      32.630000000000003      30.119999999999997
    52   1      2.5100000000000051      31.374999999999996      30.119999999999997
    53   1      2.5100000000000051      32.630000000000003      28.865000000000002
    54   1      1.2550000000000026      31.374999999999996      31.374999999999996
    55   1      1.2550000000000026      32.630000000000003      32.630000000000003
    56   1      2.5100000000000051      31.374999999999996      32.630000000000003
    57   1      2.5100000000000051      32.630000000000003      31.374999999999996
    58   1      1.2550000000000026      31.374999999999996      33.885000000000005
    59   1      1.2550000000000026      32.630000000000003      35.140000000000008
    60   1      2.5100000000000051      31.374999999999996      35.140000000000008
    61   1      2.5100000000000051      32.630000000000003      33.885000000000005
    62   1      1.2550000000000026      31.374999999999996      36.395000000000003
    63   1      2.5100000000000051      31.374999999999996      37.650000000000006
    64   1      2.5100000000000051      32.630000000000003      36.395000000000003
    65   1      2.5100000000000051      31.374999999999996      40.160000000000004
    66   1      2.5100000000000051      32.630000000000003      38.904999999999994
    67   1      2.5100000000000051      33.885000000000005      25.100000000000001
    68   1      2.5100000000000051      33.885000000000005      27.610000000000003
    69   1      2.5100000000000051      35.140000000000008                  26.355
    70   1      1.2550000000000026      33.885000000000005      28.865000000000002
    71   1      1.2550000000000026      35.140000000000008      30.119999999999997
    72   1      2.5100000000000051      33.885000000000005      30.119999999999997
    73   1      2.5100000000000051      35.140000000000008      28.865000000000002
    74   1      1.2550000000000026      33.885000000000005      31.374999999999996
    75   1      1.2550000000000026      35.140000000000008      32.630000000000003
    76   1      2.5100000000000051      33.885000000000005      32.630000000000003
    77   1      2.5100000000000051      35.140000000000008      31.374999999999996
    78   1      1.2550000000000026      33.885000000000005      33.885000000000005
    79   1      2.5100000000000051      33.885000000000005      35.140000000000008
    80   1      2.5100000000000051      35.140000000000008      33.885000000000005
    81   1      2.5100000000000051      33.885000000000005      37.650000000000006
    82   1      2.5100000000000051      35.140000000000008      36.395000000000003
    83   1      2.5100000000000051      36.395000000000003      27.610000000000003
    84   1      2.5100000000000051      36.395000000000003      30.119999999999997
    85   1      2.5100000000000051      37.650000000000006      28.865000000000002
    86   1      1.2550000000000026      36.395000000000003      31.374999999999996
    87   1      2.5100000000000051      36.395000000000003      32.630000000000003
    88   1      2.5100000000000051      37.650000000000006      31.374999999999996
    89   1      2.5100000000000051      36.395000000000003      35.140000000000008
    90   1      2.5100000000000051      37.650000000000006      33.885000000000005
    91   1      2.5100000000000051      38.904999999999994      30.119999999999997
    92   1      2.5100000000000051      38.904999999999994      32.630000000000003
    93   1      2.5100000000000051      40.160000000000004      31.374999999999996
    94   1      5.0200000000000031      15.060000000000002      31.374999999999996
    95   1      5.0200000000000031      16.315000000000005      30.119999999999997
    96   1      5.0200000000000031      17.570000000000004      28.865000000000002
    97   1      5.0200000000000031      16.315000000000005      32.630000000000003
    98   1      5.0200000000000031      17.570000000000004      31.374999999999996
    99   1      5.0200000000000031      17.570000000000004      33.885000000000005
   100   1      5.0200000000000031      18.825000000000003      27.610000000000003
   101   1      5.0200000000000031      20.080000000000002                  26.355
   102   1      3.7650000000000041      20.080000000000002      30.119999999999997
   103   1      5.0200000000000031      18.825000000000003      30.119999999999997
   104   1      5.0200000000000031      20.080000000000002      28.865000000000002
   105   1      3.7650000000000041      18.825000000000003      31.374999999999996
   106   1      3.7650000000000041      20.080000000000002      32.630000000000003
   107   1      5.0200000000000031      18.825000000000003      32.630000000000003
   108   1      5.0200000000000031      20.080000000000002      31.374999999999996
   109   1      5.0200000000000031      18.825000000000003      35.140000000000008
   110   1      5.0200000000000031      20.080000000000002      33.885000000000005
   111   1      5.0200000000000031      20.080000000000002      36.395000000000003
   112   1      5.0200000000000031      21.335000000000001      25.100000000000001
   113   1      5.0200000000000031      22.589999999999996      23.845000000000002
   114   1      3.7650000000000041      22.589999999999996      27.610000000000003
   115   1      5.0200000000000031      21.335000000000001      27.610000000000003
   116   1      5.0200000000000031      22.589999999999996                  26.355
   117   1      3.7650000000000041      21.335000000000001      28.865000000000002
   118   1      3.7650000000000041      22.589999999999996      30.119999999999997
   119   1      5.0200000000000031      21.335000000000001      30.119999999999997
   120   1      5.0200000000000031      22.589999999999996      28.865000000000002
   121   1      3.7650000000000041      21.335000000000001      31.374999999999996
   122   1      3.7650000000000041      22.589999999999996      32.630000000000003
   123   1      5.0200000000000031      21.335000000000001      32.630000000000003
   124   1      5.0200000000000031      22.589999999999996      31.374999999999996
   125   1      3.7650000000000041      21.335000000000001      33.885000000000005
   126   1      3.7650000000000041      22.589999999999996      35.140000000000008
   127   1      5.0200000000000031      21.335000000000001      35.140000000000008
   128   1      5.0200000000000031      22.589999999999996      33.885000000000005
   129   1      5.0200000000000031      21.335000000000001      37.650000000000006
   130   1      5.0200000000000031      22.589999999999996      36.395000000000003
   131   1      5.0200000000000031      22.589999999999996      38.904999999999994
   132   1      5.0200000000000031      23.845000000000002      22.589999999999996
   133   1      5.0200000000000031      25.100000000000001      21.335000000000001
   134   1      3.7650000000000041      25.100000000000001      25.100000000000001
   135   1      5.0200000000000031      23.845000000000002      25.100000000000001
   136   1      5.0200000000000031      25.100000000000001      23.845000000000002
   137   1      3.7650000000000041      23.845000000000002                  26.355
   138   1      3.7650000000000041      25.100000000000001      27.610000000000003
   139   1      5.0200000000000031      23.845000000000002      27.610000000000003
   140   1      5.0200000000000031      25.100000000000001                  26.355
   141   1      3.7650000000000041      23.845000000000002      28.865000000000002
   142   1      3.7650000000000041      25.100000000000001      30.119999999999997
   143   1      5.0200000000000031      23.845000000000002      30.119999999999997
   144   1      5.0200000000000031      25.100000000000001      28.865000000000002
   145   1      3.7650000000000041      23.845000000000002      31.374999999999996
   146   1      3.7650000000000041      25.100000000000001      32.630000000000003
   147   1      5.0200000000000031      23.845000000000002      32.630000000000003
   148   1      5.0200000000000031      25.100000000000001      31.374999999999996
   149   1      3.7650000000000041      23.845000000000002      33.885000000000005
   150   1      3.7650000000000041      25.100000000000001      35.140000000000008
   151   1      5.0200000000000031      23.845000000000002      35.140000000000008
   152   1      5.0200000000000031      25.100000000000001      33.885000000000005
   153   1      3.7650000000000041      23.845000000000002      36.395000000000003
   154   1      3.7650000000000041      25.100000000000001      37.650000000000006
   155   1      5.0200000000000031      23.845000000000002      37.650000000000006
   156   1      5.0200000000000031      25.100000000000001      36.395000000000003
   157   1      5.0200000000000031      23.845000000000002      40.160000000000004
   158   1      5.0200000000000031      25.100000000000001      38.904999999999994
   159   1      5.0200000000000031      25.100000000000001      41.414999999999999
   160   1      5.0200000000000031                  26.355      20.080000000000002
   161   1      5.0200000000000031      27.610000000000003      18.825000000000003
   162   1      3.7650000000000041      27.610000000000003      22.589999999999996
   163   1      5.0200000000000031                  26.355      22.589999999999996
   164   1      5.0200000000000031      27.610000000000003      21.335000000000001
   165   1      3.7650000000000041                  26.355      23.845000000000002
   166   1      3.7650000000000041      27.610000000000003      25.100000000000001
   167   1      5.0200000000000031                  26.355      25.100000000000001
   168   1      5.0200000000000031      27.610000000000003      23.845000000000002
   169   1      3.7650000000000041                  26.355                  26.355
   170   1      3.7650000000000041      27.610000000000003      27.610000000000003
   171   1      5.0200000000000031                  26.355      27.610000000000003
   172   1      5.0200000000000031      27.610000000000003                  26.355
   173   1      3.7650000000000041                  26.355      28.865000000000002
   174   1      3.7650000000000041      27.610000000000003      30.119999999999997
   175   1      5.0200000000000031                  26.355      30.119999999999997
   176   1      5.0200000000000031      27.610000000000003      28.865000000000002
   177   1      3.7650000000000041                  26.355      31.374999999999996
   178   1      3.7650000000000041      27.610000000000003      32.630000000000003
   179   1      5.0200000000000031                  26.355      32.630000000000003
   180   1      5.0200000000000031      27.610000000000003      31.374999999999996
   181   1      3.7650000000000041                  26.355      33.885000000000005
   182   1      3.7650000000000041      27.610000000000003      35.140000000000008
   183   1      5.0200000000000031                  26.355      35.140000000000008
   184   1      5.0200000000000031      27.610000000000003      33.885000000000005
   185   1      3.7650000000000041                  26.355      36.395000000000003
   186   1      3.7650000000000041      27.610000000000003      37.650000000000006
   187   1      5.0200000000000031                  26.355      37.650000000000006
   188   1      5.0200000000000031      27.610000000000003      36.395000000000003
   189   1      3.7650000000000041                  26.355      38.904999999999994
   190   1      3.7650000000000041      27.610000000000003      40.160000000000004
   191   1      5.0200000000000031                  26.355      40.160000000000004
   192   1      5.0200000000000031      27.610000000000003      38.904999999999994
   193   1      5.0200000000000031                  26.355      42.670000000000002
   194   1      5.0200000000000031      27.610000000000003      41.414999999999999
   195   1      5.0200000000000031      27.610000000000003      43.924999999999997
   196   1      5.0200000000000031      28.865000000000002      17.570000000000004
   197   1      5.0200000000000031      30.119999999999997      16.315000000000005
   198   1      3.7650000000000041      30.119999999999997      20.080000000000002
   199   1      5.0200000000000031      28.865000000000002      20.080000000000002
   200   1      5.0200000000000031      30.119999999999997      18.825000000000003
   201   1      3.7650000000000041      28.865000000000002      21.335000000000001
   202   1      3.7650000000000041      30.119999999999997      22.589999999999996
   203   1      5.0200000000000031      28.865000000000002      22.589999999999996
   204   1      5.0200000000000031      30.119999999999997      21.335000000000001
   205   1      3.7650000000000041      28.865000000000002      23.845000000000002
   206   1      3.7650000000000041      30.119999999999997      25.100000000000001
   207   1      5.0200000000000031      28.865000000000002      25.100000000000001
   208   1      5.0200000000000031      30.119999999999997      23.845000000000002
   209   1      3.7650000000000041      28.865000000000002                  26.355
   210   1      3.7650000000000041      30.119999999999997      27.610000000000003
   211   1      5.0200000000000031      28.865000000000002      27.610000000000003
   212   1      5.0200000000000031      30.119999999999997                  26.355
   213   1      3.7650000000000041      28.865000000000002      28.865000000000002
   214   1      3.7650000000000041      30.119999999999997      30.119999999999997
   215   1      5.0200000000000031      28.865000000000002      30.119999999999997
   216   1      5.0200000000000031      30.119999999999997      28.865000000000002
   217   1      3.7650000000000041      28.865000000000002      31.374999999999996
   218   1      3.7650000000000041      30.119999999999997      32.630000000000003
   219   1      5.0200000000000031      28.865000000000002      32.630000000000003
   220   1      5.0200000000000031      30.119999999999997      31.374999999999996
   221   1      3.7650000000000041      28.865000000000002      33.885000000000005
   222   1      3.7650000000000041      30.119999999999997      35.140000000000008
   223   1      5.0200000000000031      28.865000000000002      35.140000000000008
   224   1      5.0200000000000031      30.119999999999997      33.885000000000005
   225   1      3.7650000000000041      28.865000000000002      36.395000000000003
   226   1      3.7650000000000041      30.119999999999997      37.650000000000006
   227   1      5.0200000000000031      28.865000000000002      37.650000000000006
   228   1      5.0200000000000031      30.119999999999997      36.395000000000003
   229   1      3.7650000000000041      28.865000000000002      38.904999999999994
   230   1      3.7650000000000041      30.119999999999997      40.160000000000004
   231   1      5.0200000000000031      28.865000000000002      40.160000000000004
   232   1      5.0200000000000031      30.119999999999997      38.904999999999994
   233   1      3.7650000000000041      28.865000000000002      41.414999999999999
   234   1      3.7650000000000041      30.119999999999997      42.670000000000002
   235   1      5.0200000000000031      28.865000000000002      42.670000000000002
   236   1      5.0200000000000031      30.119999999999997      41.414999999999999
   237   1      5.0200000000000031      28.865000000000002      45.179999999999993
   238   1      5.0200000000000031      30.119999999999997      43.924999999999997
   239   1      5.0200000000000031      30.119999999999997      46.435000000000002
   240   1      5.0200000000000031      31.374999999999996      15.060000000000002
   241   1      5.0200000000000031      31.374999999999996      17.570000000000004
   242   1      5.0200000000000031      32.630000000000003      16.315000000000005
   243   1      3.7650000000000041      31.374999999999996      18.825000000000003
   244   1      3.7650000000000041      32.630000000000003      20.080000000000002
   245   1      5.0200000000000031      31.374999999999996      20.080000000000002
   246   1      5.0200000000000031      32.630000000000003      18.825000000000003
   247   1      3.7650000000000041      31.374999999999996      21.335000000000001
   248   1      3.7650000000000041      32.630000000000003      22.589999999999996
   249   1      5.0200000000000031      31.374999999999996      22.589999999999996
   250   1      5.0200000000000031      32.630000000000003      21.335000000000001
   251   1      3.7650000000000041      31.374999999999996      23.845000000000002
   252   1      3.7650000000000041      32.630000000000003      25.100000000000001
   253   1      5.0200000000000031      31.374999999999996      25.100000000000001
   254   1      5.0200000000000031      32.630000000000003      23.845000000000002
   255   1      3.7650000000000041      31.374999999999996                  26.355
   256   1      3.7650000000000041      32.630000000000003      27.610000000000003
   257   1      5.0200000000000031      31.374999999999996      27.610000000000003
   258   1      5.0200000000000031      32.630000000000003                  26.355
   259   1      3.7650000000000041      31.374999999999996      28.865000000000002
   260   1      3.7650000000000041      32.630000000000003      30.119999999999997
   261   1      5.0200000000000031      31.374999999999996      30.119999999999997
   262   1      5.0200000000000031      32.630000000000003      28.865000000000002
   263   1      3.7650000000000041      31.374999999999996      31.374999999999996
   264   1      3.7650000000000041      32.630000000000003      32.630000000000003
   265   1      5.0200000000000031      31.374999999999996      32.630000000000003
   266   1      5.0200000000000031      32.630000000000003      31.374999999999996
   267   1      3.7650000000000041      31.374999999999996      33.885000000000005
   268   1      3.7650000000000041      32.630000000000003      35.140000000000008
   269   1      5.0200000000000031      31.374999999999996      35.140000000000008
   270   1      5.0200000000000031      32.630000000000003      33.885000000000005
   271   1      3.7650000000000041      31.374999999999996      36.395000000000003
   272   1      3.7650000000000041      32.630000000000003      37.650000000000006
   273   1      5.0200000000000031      31.374999999999996      37.650000000000006
   274   1      5.0200000000000031      32.630000000000003      36.395000000000003
   275   1      3.7650000000000041      31.374999999999996      38.904999999999994
   276   1      3.7650000000000041      32.630000000000003      40.160000000000004
   277   1      5.0200000000000031      31.374999999999996      40.160000000000004
   278   1      5.0200000000000031      32.630000000000003      38.904999999999994
   279   1      3.7650000000000041      31.374999999999996      41.414999999999999
   280   1      3.7650000000000041      32.630000000000003      42.670000000000002
   281   1      5.0200000000000031      31.374999999999996      42.670000000000002
   282   1      5.0200000000000031      32.630000000000003      41.414999999999999
   283   1      3.7650000000000041      31.374999999999996      43.924999999999997
   284   1      5.0200000000000031      31.374999999999996      45.179999999999993
   285   1      5.0200000000000031      32.630000000000003      43.924999999999997
   286   1      5.0200000000000031      31.374999999999996      47.690000000000005
   287   1      5.0200000000000031      32.630000000000003      46.435000000000002
   288   1      5.0200000000000031      33.885000000000005      17.570000000000004
   289   1      5.0200000000000031      33.885000000000005      20.080000000000002
   290   1      5.0200000000000031      35.140000000000008      18.825000000000003
   291   1      3.7650000000000041      33.885000000000005      21.335000000000001
   292   1      3.7650000000000041      35.140000000000008      22.589999999999996
   293   1      5.0200000000000031      33.885000000000005      22.589999999999996
   294   1      5.0200000000000031      35.140000000000008      21.335000000000001
   295   1      3.7650000000000041      33.885000000000005      23.845000000000002
   296   1      3.7650000000000041      35.140000000000008      25.100000000000001
   297   1      5.0200000000000031      33.885000000000005      25.100000000000001
   298   1      5.0200000000000031      35.140000000000008      23.845000000000002
   299   1      3.7650000000000041      33.885000000000005                  26.355
   300   1      3.7650000000000041      35.140000000000008      27.610000000000003
   301   1      5.0200000000000031      33.885000000000005      27.610000000000003
   302   1      5.0200000000000031      35.140000000000008                  26.355
   303   1      3.7650000000000041      33.885000000000005      28.865000000000002
   304   1      3.7650000000000041      35.140000000000008      30.119999999999997
   305   1      5.0200000000000031      33.885000000000005      30.119999999999997
   306   1      5.0200000000000031      35.140000000000008      28.865000000000002
   307   1      3.7650000000000041      33.885000000000005      31.374999999999996
   308   1      3.7650000000000041      35.140000000000008      32.630000000000003
   309   1      5.0200000000000031      33.885000000000005      32.630000000000003
   310   1      5.0200000000000031      35.140000000000008      31.374999999999996
   311   1      3.7650000000000041      33.885000000000005      33.885000000000005
   312   1      3.7650000000000041      35.140000000000008      35.140000000000008
   313   1      5.0200000000000031      33.885000000000005      35.140000000000008
   314   1      5.0200000000000031      35.140000000000008      33.885000000000005
   315   1      3.7650000000000041      33.885000000000005      36.395000000000003
   316   1      3.7650000000000041      35.140000000000008      37.650000000000006
   317   1      5.0200000000000031      33.885000000000005      37.650000000000006
   318   1      5.0200000000000031      35.140000000000008      36.395000000000003
   319   1      3.7650000000000041      33.885000000000005      38.904999999999994
   320   1      3.7650000000000041      35.140000000000008      40.160000000000004
   321   1      5.0200000000000031      33.885000000000005      40.160000000000004
   322   1      5.0200000000000031      35.140000000000008      38.904999999999994
   323   1      3.7650000000000041      33.885000000000005      41.414999999999999
   324   1      5.0200000000000031      33.885000000000005      42.670000000000002
   325   1      5.0200000000000031      35.140000000000008      41.414999999999999
   326   1      5.0200000000000031      33.885000000000005      45.179999999999993
   327   1      5.0200000000000031      35.140000000000008      43.924999999999997
   328   1      5.0200000000000031      36.395000000000003      20.080000000000002
   329   1      5.0200000000000031      36.395000000000003      22.589999999999996
   330   1      5.0200000000000031      37.650000000000006      21.335000000000001
   331   1      3.7650000000000041      36.395000000000003      23.845000000000002
   332   1      3.7650000000000041      37.650000000000006      25.100000000000001
   333   1      5.0200000000000031      36.395000000000003      25.100000000000001
   334   1      5.0200000000000031      37.650000000000006      23.845000000000002
   335   1      3.7650000000000041      36.395000000000003                  26.355
   336   1      3.7650000000000041      37.650000000000006      27.610000000000003
   337   1      5.0200000000000031      36.395000000000003      27.610000000000003
   338   1      5.0200000000000031      37.650000000000006                  26.355
   339   1      3.7650000000000041      36.395000000000003      28.865000000000002
   340   1      3.7650000000000041      37.650000000000006      30.119999999999997
   341   1      5.0200000000000031      36.395000000000003      30.119999999999997
   342   1      5.0200000000000031      37.650000000000006      28.865000000000002
   343   1      3.7650000000000041      36.395000000000003      31.374999999999996
   344   1      3.7650000000000041      37.650000000000006      32.630000000000003
   345   1      5.0200000000000031      36.395000000000003      32.630000000000003
   346   1      5.0200000000000031      37.650000000000006      31.374999999999996
   347   1      3.7650000000000041      36.395000000000003      33.885000000000005
   348   1      3.7650000000000041      37.650000000000006      35.140000000000008
   349   1      5.0200000000000031      36.395000000000003      35.140000000000008
   350   1      5.0200000000000031      37.650000000000006      33.885000000000005
   351   1      3.7650000000000041      36.395000000000003      36.395000000000003
   352   1      3.7650000000000041      37.650000000000006      37.650000000000006
   353   1      5.0200000000000031      36.395000000000003      37.650000000000006
   354   1      5.0200000000000031      37.650000000000006      36.395000000000003
   355   1      3.7650000000000041      36.395000000000003      38.904999999999994
   356   1      5.0200000000000031      36.395000000000003      40.160000000000004
   357   1      5.0200000000000031      37.650000000000006      38.904999999999994
   358   1      5.0200000000000031      36.395000000000003      42.670000000000002