model_files/CuFeNi/CuFeNi_30000/CuFeNi_322/CuFeNi_322_fcc_30187_temp.data (written by ASE) 

30187 	 atoms 
3  atom types
0.0                     109  xlo xhi
0.0                     109  ylo yhi
0.0                     109  zlo zhi


Atoms 

     1   1      1.7899999999999991      51.910000000000011      53.700000000000003
     2   1      1.7899999999999991      53.700000000000003      51.910000000000011
     3   1                       0      53.700000000000003      53.700000000000003
     4   1      1.7899999999999991      53.700000000000003      55.490000000000002
     5   1      1.7899999999999991      55.490000000000002      53.700000000000003
     6   1      5.3700000000000045      44.750000000000007      53.700000000000003
     7   1      3.5799999999999983      48.330000000000005      51.910000000000011
     8   1      5.3700000000000045      46.540000000000006      51.910000000000011
     9   1      5.3700000000000045      48.330000000000005      50.120000000000012
    10   1      3.5799999999999983      46.540000000000006      53.700000000000003
    11   1      3.5799999999999983      48.330000000000005      55.490000000000002
    12   1      5.3700000000000045      46.540000000000006      55.490000000000002
    13   1      5.3700000000000045      48.330000000000005      53.700000000000003
    14   1      5.3700000000000045      48.330000000000005      57.280000000000008
    15   1      3.5799999999999983      51.910000000000011      48.330000000000005
    16   1      5.3700000000000045      50.120000000000012      48.330000000000005
    17   1      5.3700000000000045      51.910000000000011      46.540000000000006
    18   1      3.5799999999999983      50.120000000000012      50.120000000000012
    19   1      3.5799999999999983      51.910000000000011      51.910000000000011
    20   1      5.3700000000000045      50.120000000000012      51.910000000000011
    21   1      5.3700000000000045      51.910000000000011      50.120000000000012
    22   1      3.5799999999999983      50.120000000000012      53.700000000000003
    23   1      3.5799999999999983      51.910000000000011      55.490000000000002
    24   1      5.3700000000000045      50.120000000000012      55.490000000000002
    25   1      5.3700000000000045      51.910000000000011      53.700000000000003
    26   1      3.5799999999999983      50.120000000000012      57.280000000000008
    27   1      3.5799999999999983      51.910000000000011                   59.07
    28   1      5.3700000000000045      50.120000000000012                   59.07
    29   1      5.3700000000000045      51.910000000000011      57.280000000000008
    30   1      5.3700000000000045      51.910000000000011      60.860000000000007
    31   1      5.3700000000000045      53.700000000000003      44.750000000000007
    32   1      3.5799999999999983      53.700000000000003      46.540000000000006
    33   1      3.5799999999999983      55.490000000000002      48.330000000000005
    34   1      5.3700000000000045      53.700000000000003      48.330000000000005
    35   1      5.3700000000000045      55.490000000000002      46.540000000000006
    36   1      3.5799999999999983      53.700000000000003      50.120000000000012
    37   1      3.5799999999999983      55.490000000000002      51.910000000000011
    38   1      5.3700000000000045      53.700000000000003      51.910000000000011
    39   1      5.3700000000000045      55.490000000000002      50.120000000000012
    40   1      3.5799999999999983      53.700000000000003      53.700000000000003
    41   1      3.5799999999999983      55.490000000000002      55.490000000000002
    42   1      5.3700000000000045      53.700000000000003      55.490000000000002
    43   1      5.3700000000000045      55.490000000000002      53.700000000000003
    44   1      3.5799999999999983      53.700000000000003      57.280000000000008
    45   1      3.5799999999999983      55.490000000000002                   59.07
    46   1      5.3700000000000045      53.700000000000003                   59.07
    47   1      5.3700000000000045      55.490000000000002      57.280000000000008
    48   1      3.5799999999999983      53.700000000000003      60.860000000000007
    49   1      5.3700000000000045      53.700000000000003      62.650000000000006
    50   1      5.3700000000000045      55.490000000000002      60.860000000000007
    51   1      5.3700000000000045      57.280000000000008      48.330000000000005
    52   1      3.5799999999999983      57.280000000000008      50.120000000000012
    53   1      3.5799999999999983                   59.07      51.910000000000011
    54   1      5.3700000000000045      57.280000000000008      51.910000000000011
    55   1      5.3700000000000045                   59.07      50.120000000000012
    56   1      3.5799999999999983      57.280000000000008      53.700000000000003
    57   1      3.5799999999999983                   59.07      55.490000000000002
    58   1      5.3700000000000045      57.280000000000008      55.490000000000002
    59   1      5.3700000000000045                   59.07      53.700000000000003
    60   1      3.5799999999999983      57.280000000000008      57.280000000000008
    61   1      5.3700000000000045      57.280000000000008                   59.07
    62   1      5.3700000000000045                   59.07      57.280000000000008
    63   1      5.3700000000000045      60.860000000000007      51.910000000000011
    64   1      3.5799999999999983      60.860000000000007      53.700000000000003
    65   1      5.3700000000000045      60.860000000000007      55.490000000000002
    66   1      5.3700000000000045      62.650000000000006      53.700000000000003
    67   1      8.9500000000000028      41.170000000000002      53.700000000000003
    68   1      7.1600000000000037      44.750000000000007      51.910000000000011
    69   1      8.9500000000000028      42.960000000000008      51.910000000000011
    70   1      8.9500000000000028      44.750000000000007      50.120000000000012
    71   1      7.1600000000000037      42.960000000000008      53.700000000000003
    72   1      7.1600000000000037      44.750000000000007      55.490000000000002
    73   1      8.9500000000000028      42.960000000000008      55.490000000000002
    74   1      8.9500000000000028      44.750000000000007      53.700000000000003
    75   1      8.9500000000000028      44.750000000000007      57.280000000000008
    76   1      7.1600000000000037      48.330000000000005      48.330000000000005
    77   1      8.9500000000000028      46.540000000000006      48.330000000000005
    78   1      8.9500000000000028      48.330000000000005      46.540000000000006
    79   1      7.1600000000000037      46.540000000000006      50.120000000000012
    80   1      7.1600000000000037      48.330000000000005      51.910000000000011
    81   1      8.9500000000000028      46.540000000000006      51.910000000000011
    82   1      8.9500000000000028      48.330000000000005      50.120000000000012
    83   1      7.1600000000000037      46.540000000000006      53.700000000000003
    84   1      7.1600000000000037      48.330000000000005      55.490000000000002
    85   1      8.9500000000000028      46.540000000000006      55.490000000000002
    86   1      8.9500000000000028      48.330000000000005      53.700000000000003
    87   1      7.1600000000000037      46.540000000000006      57.280000000000008
    88   1      7.1600000000000037      48.330000000000005                   59.07
    89   1      8.9500000000000028      46.540000000000006                   59.07
    90   1      8.9500000000000028      48.330000000000005      57.280000000000008
    91   1      8.9500000000000028      48.330000000000005      60.860000000000007
    92   1      7.1600000000000037      51.910000000000011      44.750000000000007
    93   1      8.9500000000000028      50.120000000000012      44.750000000000007
    94   1      8.9500000000000028      51.910000000000011      42.960000000000008
    95   1      7.1600000000000037      50.120000000000012      46.540000000000006
    96   1      7.1600000000000037      51.910000000000011      48.330000000000005
    97   1      8.9500000000000028      50.120000000000012      48.330000000000005
    98   1      8.9500000000000028      51.910000000000011      46.540000000000006
    99   1      7.1600000000000037      50.120000000000012      50.120000000000012
   100   1      7.1600000000000037      51.910000000000011      51.910000000000011
   101   1      8.9500000000000028      50.120000000000012      51.910000000000011
   102   1      8.9500000000000028      51.910000000000011      50.120000000000012
   103   1      7.1600000000000037      50.120000000000012      53.700000000000003
   104   1      7.1600000000000037      51.910000000000011      55.490000000000002
   105   1      8.9500000000000028      50.120000000000012      55.490000000000002
   106   1      8.9500000000000028      51.910000000000011      53.700000000000003
   107   1      7.1600000000000037      50.120000000000012      57.280000000000008
   108   1      7.1600000000000037      51.910000000000011                   59.07
   109   1      8.9500000000000028      50.120000000000012                   59.07
   110   1      8.9500000000000028      51.910000000000011      57.280000000000008
   111   1      7.1600000000000037      50.120000000000012      60.860000000000007
   112   1      7.1600000000000037      51.910000000000011      62.650000000000006
   113   1      8.9500000000000028      50.120000000000012      62.650000000000006
   114   1      8.9500000000000028      51.910000000000011      60.860000000000007
   115   1      8.9500000000000028      51.910000000000011      64.439999999999998
   116   1      8.9500000000000028      53.700000000000003      41.170000000000002
   117   1      7.1600000000000037      53.700000000000003      42.960000000000008
   118   1      7.1600000000000037      55.490000000000002      44.750000000000007
   119   1      8.9500000000000028      53.700000000000003      44.750000000000007
   120   1      8.9500000000000028      55.490000000000002      42.960000000000008
   121   1      7.1600000000000037      53.700000000000003      46.540000000000006
   122   1      7.1600000000000037      55.490000000000002      48.330000000000005
   123   1      8.9500000000000028      53.700000000000003      48.330000000000005
   124   1      8.9500000000000028      55.490000000000002      46.540000000000006
   125   1      7.1600000000000037      53.700000000000003      50.120000000000012
   126   1      7.1600000000000037      55.490000000000002      51.910000000000011
   127   1      8.9500000000000028      53.700000000000003      51.910000000000011
   128   1      8.9500000000000028      55.490000000000002      50.120000000000012
   129   1      7.1600000000000037      53.700000000000003      53.700000000000003
   130   1      7.1600000000000037      55.490000000000002      55.490000000000002
   131   1      8.9500000000000028      53.700000000000003      55.490000000000002
   132   1      8.9500000000000028      55.490000000000002      53.700000000000003
   133   1      7.1600000000000037      53.700000000000003      57.280000000000008
   134   1      7.1600000000000037      55.490000000000002                   59.07
   135   1      8.9500000000000028      53.700000000000003                   59.07
   136   1      8.9500000000000028      55.490000000000002      57.280000000000008
   137   1      7.1600000000000037      53.700000000000003      60.860000000000007
   138   1      7.1600000000000037      55.490000000000002      62.650000000000006
   139   1      8.9500000000000028      53.700000000000003      62.650000000000006
   140   1      8.9500000000000028      55.490000000000002      60.860000000000007
   141   1      7.1600000000000037      53.700000000000003      64.439999999999998
   142   1      8.9500000000000028      53.700000000000003      66.230000000000004
   143   1      8.9500000000000028      55.490000000000002      64.439999999999998
   144   1      8.9500000000000028      57.280000000000008      44.750000000000007
   145   1      7.1600000000000037      57.280000000000008      46.540000000000006
   146   1      7.1600000000000037                   59.07      48.330000000000005
   147   1      8.9500000000000028      57.280000000000008      48.330000000000005
   148   1      8.9500000000000028                   59.07      46.540000000000006
   149   1      7.1600000000000037      57.280000000000008      50.120000000000012
   150   1      7.1600000000000037                   59.07      51.910000000000011
   151   1      8.9500000000000028      57.280000000000008      51.910000000000011
   152   1      8.9500000000000028                   59.07      50.120000000000012
   153   1      7.1600000000000037      57.280000000000008      53.700000000000003
   154   1      7.1600000000000037                   59.07      55.490000000000002
   155   1      8.9500000000000028      57.280000000000008      55.490000000000002
   156   1      8.9500000000000028                   59.07      53.700000000000003
   157   1      7.1600000000000037      57.280000000000008      57.280000000000008
   158   1      7.1600000000000037                   59.07                   59.07
   159   1      8.9500000000000028      57.280000000000008                   59.07
   160   1      8.9500000000000028                   59.07      57.280000000000008
   161   1      7.1600000000000037      57.280000000000008      60.860000000000007
   162   1      8.9500000000000028      57.280000000000008      62.650000000000006
   163   1      8.9500000000000028                   59.07      60.860000000000007
   164   1      8.9500000000000028      60.860000000000007      48.330000000000005
   165   1      7.1600000000000037      60.860000000000007      50.120000000000012
   166   1      7.1600000000000037      62.650000000000006      51.910000000000011
   167   1      8.9500000000000028      60.860000000000007      51.910000000000011
   168   1      8.9500000000000028      62.650000000000006      50.120000000000012
   169   1      7.1600000000000037      60.860000000000007      53.700000000000003
   170   1      7.1600000000000037      62.650000000000006      55.490000000000002
   171   1      8.9500000000000028      60.860000000000007      55.490000000000002
   172   1      8.9500000000000028      62.650000000000006      53.700000000000003
   173   1      7.1600000000000037      60.860000000000007      57.280000000000008
   174   1      8.9500000000000028      60.860000000000007                   59.07
   175   1      8.9500000000000028      62.650000000000006      57.280000000000008
   176   1      8.9500000000000028      64.439999999999998      51.910000000000011
   177   1      7.1600000000000037      64.439999999999998      53.700000000000003
   178   1      8.9500000000000028      64.439999999999998      55.490000000000002
   179   1      8.9500000000000028      66.230000000000004      53.700000000000003
   180   1      12.530000000000003      34.009999999999998      53.700000000000003
   181   1      10.740000000000004      37.590000000000003      51.910000000000011
   182   1      12.530000000000003      35.800000000000011      51.910000000000011
   183   1      12.530000000000003      37.590000000000003      50.120000000000012
   184   1      10.740000000000004      35.800000000000011      53.700000000000003
   185   1      10.740000000000004      37.590000000000003      55.490000000000002
   186   1      12.530000000000003      35.800000000000011      55.490000000000002
   187   1      12.530000000000003      37.590000000000003      53.700000000000003
   188   1      12.530000000000003      37.590000000000003      57.280000000000008
   189   1      10.740000000000004      41.170000000000002      48.330000000000005
   190   1      12.530000000000003      39.380000000000003      48.330000000000005
   191   1      12.530000000000003      41.170000000000002      46.540000000000006
   192   1      10.740000000000004      39.380000000000003      50.120000000000012
   193   1      10.740000000000004      41.170000000000002      51.910000000000011
   194   1      12.530000000000003      39.380000000000003      51.910000000000011
   195   1      12.530000000000003      41.170000000000002      50.120000000000012
   196   1      10.740000000000004      39.380000000000003      53.700000000000003
   197   1      10.740000000000004      41.170000000000002      55.490000000000002
   198   1      12.530000000000003      39.380000000000003      55.490000000000002
   199   1      12.530000000000003      41.170000000000002      53.700000000000003
   200   1      10.740000000000004      39.380000000000003      57.280000000000008
   201   1      10.740000000000004      41.170000000000002                   59.07
   202   1      12.530000000000003      39.380000000000003                   59.07
   203   1      12.530000000000003      41.170000000000002      57.280000000000008
   204   1      12.530000000000003      41.170000000000002      60.860000000000007
   205   1      10.740000000000004      44.750000000000007      44.750000000000007
   206   1      12.530000000000003      42.960000000000008      44.750000000000007
   207   1      12.530000000000003      44.750000000000007      42.960000000000008
   208   1      10.740000000000004      42.960000000000008      46.540000000000006
   209   1      10.740000000000004      44.750000000000007      48.330000000000005
   210   1      12.530000000000003      42.960000000000008      48.330000000000005
   211   1      12.530000000000003      44.750000000000007      46.540000000000006
   212   1      10.740000000000004      42.960000000000008      50.120000000000012
   213   1      10.740000000000004      44.750000000000007      51.910000000000011
   214   1      12.530000000000003      42.960000000000008      51.910000000000011
   215   1      12.530000000000003      44.750000000000007      50.120000000000012
   216   1      10.740000000000004      42.960000000000008      53.700000000000003
   217   1      10.740000000000004      44.750000000000007      55.490000000000002
   218   1      12.530000000000003      42.960000000000008      55.490000000000002
   219   1      12.530000000000003      44.750000000000007      53.700000000000003
   220   1      10.740000000000004      42.960000000000008      57.280000000000008
   221   1      10.740000000000004      44.750000000000007                   59.07
   222   1      12.530000000000003      42.960000000000008                   59.07
   223   1      12.530000000000003      44.750000000000007      57.280000000000008
   224   1      10.740000000000004      42.960000000000008      60.860000000000007
   225   1      10.740000000000004      44.750000000000007      62.650000000000006
   226   1      12.530000000000003      42.960000000000008      62.650000000000006
   227   1      12.530000000000003      44.750000000000007      60.860000000000007
   228   1      12.530000000000003      44.750000000000007      64.439999999999998
   229   1      10.740000000000004      48.330000000000005      41.170000000000002
   230   1      12.530000000000003      46.540000000000006      41.170000000000002
   231   1      12.530000000000003      48.330000000000005      39.380000000000003
   232   1      10.740000000000004      46.540000000000006      42.960000000000008
   233   1      10.740000000000004      48.330000000000005      44.750000000000007
   234   1      12.530000000000003      46.540000000000006      44.750000000000007
   235   1      12.530000000000003      48.330000000000005      42.960000000000008
   236   1      10.740000000000004      46.540000000000006      46.540000000000006
   237   1      10.740000000000004      48.330000000000005      48.330000000000005
   238   1      12.530000000000003      46.540000000000006      48.330000000000005
   239   1      12.530000000000003      48.330000000000005      46.540000000000006
   240   1      10.740000000000004      46.540000000000006      50.120000000000012
   241   1      10.740000000000004      48.330000000000005      51.910000000000011
   242   1      12.530000000000003      46.540000000000006      51.910000000000011
   243   1      12.530000000000003      48.330000000000005      50.120000000000012
   244   1      10.740000000000004      46.540000000000006      53.700000000000003
   245   1      10.740000000000004      48.330000000000005      55.490000000000002
   246   1      12.530000000000003      46.540000000000006      55.490000000000002
   247   1      12.530000000000003      48.330000000000005      53.700000000000003
   248   1      10.740000000000004      46.540000000000006      57.280000000000008
   249   1      10.740000000000004      48.330000000000005                   59.07
   250   1      12.530000000000003      46.540000000000006                   59.07
   251   1      12.530000000000003      48.330000000000005      57.280000000000008
   252   1      10.740000000000004      46.540000000000006      60.860000000000007
   253   1      10.740000000000004      48.330000000000005      62.650000000000006
   254   1      12.530000000000003      46.540000000000006      62.650000000000006
   255   1      12.530000000000003      48.330000000000005      60.860000000000007
   256   1      10.740000000000004      46.540000000000006      64.439999999999998
   257   1      10.740000000000004      48.330000000000005      66.230000000000004
   258   1      12.530000000000003      46.540000000000006      66.230000000000004
   259   1      12.530000000000003      48.330000000000005      64.439999999999998
   260   1      12.530000000000003      48.330000000000005      68.019999999999996
   261   1      10.740000000000004      51.910000000000011      37.590000000000003
   262   1      12.530000000000003      50.120000000000012      37.590000000000003
   263   1      12.530000000000003      51.910000000000011      35.800000000000011
   264   1      10.740000000000004      50.120000000000012      39.380000000000003
   265   1      10.740000000000004      51.910000000000011      41.170000000000002
   266   1      12.530000000000003      50.120000000000012      41.170000000000002
   267   1      12.530000000000003      51.910000000000011      39.380000000000003
   268   1      10.740000000000004      50.120000000000012      42.960000000000008
   269   1      10.740000000000004      51.910000000000011      44.750000000000007
   270   1      12.530000000000003      50.120000000000012      44.750000000000007
   271   1      12.530000000000003      51.910000000000011      42.960000000000008
   272   1      10.740000000000004      50.120000000000012      46.540000000000006
   273   1      10.740000000000004      51.910000000000011      48.330000000000005
   274   1      12.530000000000003      50.120000000000012      48.330000000000005
   275   1      12.530000000000003      51.910000000000011      46.540000000000006
   276   1      10.740000000000004      50.120000000000012      50.120000000000012
   277   1      10.740000000000004      51.910000000000011      51.910000000000011
   278   1      12.530000000000003      50.120000000000012      51.910000000000011
   279   1      12.530000000000003      51.910000000000011      50.120000000000012
   280   1      10.740000000000004      50.120000000000012      53.700000000000003
   281   1      10.740000000000004      51.910000000000011      55.490000000000002
   282   1      12.530000000000003      50.120000000000012      55.490000000000002
   283   1      12.530000000000003      51.910000000000011      53.700000000000003
   284   1      10.740000000000004      50.120000000000012      57.280000000000008
   285   1      10.740000000000004      51.910000000000011                   59.07
   286   1      12.530000000000003      50.120000000000012                   59.07
   287   1      12.530000000000003      51.910000000000011      57.280000000000008
   288   1      10.740000000000004      50.120000000000012      60.860000000000007
   289   1      10.740000000000004      51.910000000000011      62.650000000000006
   290   1      12.530000000000003      50.120000000000012      62.650000000000006
   291   1      12.530000000000003      51.910000000000011      60.860000000000007
   292   1      10.740000000000004      50.120000000000012      64.439999999999998
   293   1      10.740000000000004      51.910000000000011      66.230000000000004
   294   1      12.530000000000003      50.120000000000012      66.230000000000004
   295   1      12.530000000000003      51.910000000000011      64.439999999999998
   296   1      10.740000000000004      50.120000000000012      68.019999999999996
   297   1      10.740000000000004      51.910000000000011      69.810000000000016
   298   1      12.530000000000003      50.120000000000012      69.810000000000016
   299   1      12.530000000000003      51.910000000000011      68.019999999999996
   300   1      12.530000000000003      51.910000000000011      71.600000000000023
   301   1      12.530000000000003      53.700000000000003      34.009999999999998
   302   1      10.740000000000004      53.700000000000003      35.800000000000011
   303   1      10.740000000000004      55.490000000000002      37.590000000000003
   304   1      12.530000000000003      53.700000000000003      37.590000000000003
   305   1      12.530000000000003      55.490000000000002      35.800000000000011
   306   1      10.740000000000004      53.700000000000003      39.380000000000003
   307   1      10.740000000000004      55.490000000000002      41.170000000000002
   308   1      12.530000000000003      53.700000000000003      41.170000000000002
   309   1      12.530000000000003      55.490000000000002      39.380000000000003
   310   1      10.740000000000004      53.700000000000003      42.960000000000008
   311   1      10.740000000000004      55.490000000000002      44.750000000000007
   312   1      12.530000000000003      53.700000000000003      44.750000000000007
   313   1      12.530000000000003      55.490000000000002      42.960000000000008
   314   1      10.740000000000004      53.700000000000003      46.540000000000006
   315   1      10.740000000000004      55.490000000000002      48.330000000000005
   316   1      12.530000000000003      53.700000000000003      48.330000000000005
   317   1      12.530000000000003      55.490000000000002      46.540000000000006
   318   1      10.740000000000004      53.700000000000003      50.120000000000012
   319   1      10.740000000000004      55.490000000000002      51.910000000000011
   320   1      12.530000000000003      53.700000000000003      51.910000000000011
   321   1      12.530000000000003      55.490000000000002      50.120000000000012
   322   1      10.740000000000004      53.700000000000003      53.700000000000003
   323   1      10.740000000000004      55.490000000000002      55.490000000000002
   324   1      12.530000000000003      53.700000000000003      55.490000000000002
   325   1      12.530000000000003      55.490000000000002      53.700000000000003
   326   1      10.740000000000004      53.700000000000003      57.280000000000008
   327   1      10.740000000000004      55.490000000000002                   59.07
   328   1      12.530000000000003      53.700000000000003                   59.07
   329   1      12.530000000000003      55.490000000000002      57.280000000000008
   330   1      10.740000000000004      53.700000000000003      60.860000000000007
   331   1      10.740000000000004      55.490000000000002      62.650000000000006
   332   1      12.530000000000003      53.700000000000003      62.650000000000006
   333   1      12.530000000000003      55.490000000000002      60.860000000000007
   334   1      10.740000000000004      53.700000000000003      64.439999999999998
   335   1      10.740000000000004      55.490000000000002      66.230000000000004
   336   1      12.530000000000003      53.700000000000003      66.230000000000004
   337   1      12.530000000000003      55.490000000000002      64.439999999999998
   338   1      10.740000000000004      53.700000000000003      68.019999999999996
   339   1      10.740000000000004      55.490000000000002      69.810000000000016
   340   1      12.530000000000003      53.700000000000003      69.810000000000016
   341   1      12.530000000000003      55.490000000000002      68.019999999999996
   342   1      10.740000000000004      53.700000000000003      71.600000000000023
   343   1      12.530000000000003      53.700000000000003      73.390000000000015
   344   1      12.530000000000003      55.490000000000002      71.600000000000023
   345   1      12.530000000000003      57.280000000000008      37.590000000000003
   346   1      10.740000000000004      57.280000000000008      39.380000000000003
   347   1      10.740000000000004                   59.07      41.170000000000002
   348   1      12.530000000000003      57.280000000000008      41.170000000000002
   349   1      12.530000000000003                   59.07      39.380000000000003
   350   1      10.740000000000004      57.280000000000008      42.960000000000008
   351   1      10.740000000000004                   59.07      44.750000000000007
   352   1      12.530000000000003      57.280000000000008      44.750000000000007
   353   1      12.530000000000003                   59.07      42.960000000000008
   354   1      10.740000000000004      57.280000000000008      46.540000000000006
   355   1      10.740000000000004                   59.07      48.330000000000005
   356   1      12.530000000000003      57.280000000000008      48.330000000000005
   357   1      12.530000000000003                   59.07      46.540000000000006
   358   1      10.740000000000004      57.280000000000008      50.120000000000012