model_files/Au/Au_30000/Au_310/data.Au_310_fcc_30527 (written by ASE) 

30527 	 atoms 
1  atom types
0.0                      95  xlo xhi
0.0                      95  ylo yhi
0.0                      95  zlo zhi


Atoms 

     1   1  7.1054273576010019e-15      42.840000000000011       44.88000000000001
     2   1  7.1054273576010019e-15       44.88000000000001      42.840000000000011
     3   1  7.1054273576010019e-15      42.840000000000011      48.960000000000008
     4   1  7.1054273576010019e-15       44.88000000000001      46.920000000000009
     5   1  7.1054273576010019e-15       44.88000000000001      51.000000000000014
     6   1  7.1054273576010019e-15      46.920000000000009       44.88000000000001
     7   1  7.1054273576010019e-15      48.960000000000008      42.840000000000011
     8   1  7.1054273576010019e-15      46.920000000000009      48.960000000000008
     9   1  7.1054273576010019e-15      48.960000000000008      46.920000000000009
    10   1  7.1054273576010019e-15      48.960000000000008      51.000000000000014
    11   1  7.1054273576010019e-15      51.000000000000014       44.88000000000001
    12   1  7.1054273576010019e-15      51.000000000000014      48.960000000000008
    13   1      4.0800000000000054      30.600000000000009      32.640000000000008
    14   1      4.0800000000000054      32.640000000000008      30.600000000000009
    15   1      4.0800000000000054      30.600000000000009      36.720000000000006
    16   1      4.0800000000000054      32.640000000000008      34.680000000000007
    17   1      4.0800000000000054      30.600000000000009      40.800000000000004
    18   1      4.0800000000000054      32.640000000000008      38.760000000000005
    19   1      4.0800000000000054      30.600000000000009       44.88000000000001
    20   1      4.0800000000000054      32.640000000000008      42.840000000000011
    21   1      4.0800000000000054      30.600000000000009      48.960000000000008
    22   1      4.0800000000000054      32.640000000000008      46.920000000000009
    23   1      4.0800000000000054      30.600000000000009      53.039999999999999
    24   1      4.0800000000000054      32.640000000000008      51.000000000000014
    25   1      4.0800000000000054      30.600000000000009      57.120000000000012
    26   1      4.0800000000000054      32.640000000000008      55.080000000000013
    27   1      4.0800000000000054      30.600000000000009       61.20000000000001
    28   1      4.0800000000000054      32.640000000000008      59.160000000000011
    29   1      4.0800000000000054      32.640000000000008      63.240000000000009
    30   1      4.0800000000000054      34.680000000000007      32.640000000000008
    31   1      4.0800000000000054      36.720000000000006      30.600000000000009
    32   1      2.0400000000000063      36.720000000000006      36.720000000000006
    33   1      4.0800000000000054      34.680000000000007      36.720000000000006
    34   1      4.0800000000000054      36.720000000000006      34.680000000000007
    35   1      2.0400000000000063      36.720000000000006      40.800000000000004
    36   1      4.0800000000000054      34.680000000000007      40.800000000000004
    37   1      4.0800000000000054      36.720000000000006      38.760000000000005
    38   1      2.0400000000000063      36.720000000000006       44.88000000000001
    39   1      4.0800000000000054      34.680000000000007       44.88000000000001
    40   1      4.0800000000000054      36.720000000000006      42.840000000000011
    41   1      2.0400000000000063      36.720000000000006      48.960000000000008
    42   1      4.0800000000000054      34.680000000000007      48.960000000000008
    43   1      4.0800000000000054      36.720000000000006      46.920000000000009
    44   1      2.0400000000000063      36.720000000000006      53.039999999999999
    45   1      4.0800000000000054      34.680000000000007      53.039999999999999
    46   1      4.0800000000000054      36.720000000000006      51.000000000000014
    47   1      2.0400000000000063      36.720000000000006      57.120000000000012
    48   1      4.0800000000000054      34.680000000000007      57.120000000000012
    49   1      4.0800000000000054      36.720000000000006      55.080000000000013
    50   1      4.0800000000000054      34.680000000000007       61.20000000000001
    51   1      4.0800000000000054      36.720000000000006      59.160000000000011
    52   1      4.0800000000000054      36.720000000000006      63.240000000000009
    53   1      4.0800000000000054      38.760000000000005      32.640000000000008
    54   1      4.0800000000000054      40.800000000000004      30.600000000000009
    55   1      2.0400000000000063      40.800000000000004      36.720000000000006
    56   1      4.0800000000000054      38.760000000000005      36.720000000000006
    57   1      4.0800000000000054      40.800000000000004      34.680000000000007
    58   1      2.0400000000000063      38.760000000000005      38.760000000000005
    59   1      2.0400000000000063      40.800000000000004      40.800000000000004
    60   1      4.0800000000000054      38.760000000000005      40.800000000000004
    61   1      4.0800000000000054      40.800000000000004      38.760000000000005
    62   1      2.0400000000000063      38.760000000000005      42.840000000000011
    63   1      2.0400000000000063      40.800000000000004       44.88000000000001
    64   1      4.0800000000000054      38.760000000000005       44.88000000000001
    65   1      4.0800000000000054      40.800000000000004      42.840000000000011
    66   1      2.0400000000000063      38.760000000000005      46.920000000000009
    67   1      2.0400000000000063      40.800000000000004      48.960000000000008
    68   1      4.0800000000000054      38.760000000000005      48.960000000000008
    69   1      4.0800000000000054      40.800000000000004      46.920000000000009
    70   1      2.0400000000000063      38.760000000000005      51.000000000000014
    71   1      2.0400000000000063      40.800000000000004      53.039999999999999
    72   1      4.0800000000000054      38.760000000000005      53.039999999999999
    73   1      4.0800000000000054      40.800000000000004      51.000000000000014
    74   1      2.0400000000000063      38.760000000000005      55.080000000000013
    75   1      2.0400000000000063      40.800000000000004      57.120000000000012
    76   1      4.0800000000000054      38.760000000000005      57.120000000000012
    77   1      4.0800000000000054      40.800000000000004      55.080000000000013
    78   1      4.0800000000000054      38.760000000000005       61.20000000000001
    79   1      4.0800000000000054      40.800000000000004      59.160000000000011
    80   1      4.0800000000000054      40.800000000000004      63.240000000000009
    81   1      4.0800000000000054      42.840000000000011      32.640000000000008
    82   1      4.0800000000000054       44.88000000000001      30.600000000000009
    83   1      2.0400000000000063       44.88000000000001      36.720000000000006
    84   1      4.0800000000000054      42.840000000000011      36.720000000000006
    85   1      4.0800000000000054       44.88000000000001      34.680000000000007
    86   1      2.0400000000000063      42.840000000000011      38.760000000000005
    87   1      2.0400000000000063       44.88000000000001      40.800000000000004
    88   1      4.0800000000000054      42.840000000000011      40.800000000000004
    89   1      4.0800000000000054       44.88000000000001      38.760000000000005
    90   1      2.0400000000000063      42.840000000000011      42.840000000000011
    91   1      2.0400000000000063       44.88000000000001       44.88000000000001
    92   1      4.0800000000000054      42.840000000000011       44.88000000000001
    93   1      4.0800000000000054       44.88000000000001      42.840000000000011
    94   1      2.0400000000000063      42.840000000000011      46.920000000000009
    95   1      2.0400000000000063       44.88000000000001      48.960000000000008
    96   1      4.0800000000000054      42.840000000000011      48.960000000000008
    97   1      4.0800000000000054       44.88000000000001      46.920000000000009
    98   1      2.0400000000000063      42.840000000000011      51.000000000000014
    99   1      2.0400000000000063       44.88000000000001      53.039999999999999
   100   1      4.0800000000000054      42.840000000000011      53.039999999999999
   101   1      4.0800000000000054       44.88000000000001      51.000000000000014
   102   1      2.0400000000000063      42.840000000000011      55.080000000000013
   103   1      2.0400000000000063       44.88000000000001      57.120000000000012
   104   1      4.0800000000000054      42.840000000000011      57.120000000000012
   105   1      4.0800000000000054       44.88000000000001      55.080000000000013
   106   1      4.0800000000000054      42.840000000000011       61.20000000000001
   107   1      4.0800000000000054       44.88000000000001      59.160000000000011
   108   1      4.0800000000000054       44.88000000000001      63.240000000000009
   109   1      4.0800000000000054      46.920000000000009      32.640000000000008
   110   1      4.0800000000000054      48.960000000000008      30.600000000000009
   111   1      2.0400000000000063      48.960000000000008      36.720000000000006
   112   1      4.0800000000000054      46.920000000000009      36.720000000000006
   113   1      4.0800000000000054      48.960000000000008      34.680000000000007
   114   1      2.0400000000000063      46.920000000000009      38.760000000000005
   115   1      2.0400000000000063      48.960000000000008      40.800000000000004
   116   1      4.0800000000000054      46.920000000000009      40.800000000000004
   117   1      4.0800000000000054      48.960000000000008      38.760000000000005
   118   1      2.0400000000000063      46.920000000000009      42.840000000000011
   119   1      2.0400000000000063      48.960000000000008       44.88000000000001
   120   1      4.0800000000000054      46.920000000000009       44.88000000000001
   121   1      4.0800000000000054      48.960000000000008      42.840000000000011
   122   1      2.0400000000000063      46.920000000000009      46.920000000000009
   123   1      2.0400000000000063      48.960000000000008      48.960000000000008
   124   1      4.0800000000000054      46.920000000000009      48.960000000000008
   125   1      4.0800000000000054      48.960000000000008      46.920000000000009
   126   1      2.0400000000000063      46.920000000000009      51.000000000000014
   127   1      2.0400000000000063      48.960000000000008      53.039999999999999
   128   1      4.0800000000000054      46.920000000000009      53.039999999999999
   129   1      4.0800000000000054      48.960000000000008      51.000000000000014
   130   1      2.0400000000000063      46.920000000000009      55.080000000000013
   131   1      2.0400000000000063      48.960000000000008      57.120000000000012
   132   1      4.0800000000000054      46.920000000000009      57.120000000000012
   133   1      4.0800000000000054      48.960000000000008      55.080000000000013
   134   1      4.0800000000000054      46.920000000000009       61.20000000000001
   135   1      4.0800000000000054      48.960000000000008      59.160000000000011
   136   1      4.0800000000000054      48.960000000000008      63.240000000000009
   137   1      4.0800000000000054      51.000000000000014      32.640000000000008
   138   1      4.0800000000000054      53.039999999999999      30.600000000000009
   139   1      2.0400000000000063      53.039999999999999      36.720000000000006
   140   1      4.0800000000000054      51.000000000000014      36.720000000000006
   141   1      4.0800000000000054      53.039999999999999      34.680000000000007
   142   1      2.0400000000000063      51.000000000000014      38.760000000000005
   143   1      2.0400000000000063      53.039999999999999      40.800000000000004
   144   1      4.0800000000000054      51.000000000000014      40.800000000000004
   145   1      4.0800000000000054      53.039999999999999      38.760000000000005
   146   1      2.0400000000000063      51.000000000000014      42.840000000000011
   147   1      2.0400000000000063      53.039999999999999       44.88000000000001
   148   1      4.0800000000000054      51.000000000000014       44.88000000000001
   149   1      4.0800000000000054      53.039999999999999      42.840000000000011
   150   1      2.0400000000000063      51.000000000000014      46.920000000000009
   151   1      2.0400000000000063      53.039999999999999      48.960000000000008
   152   1      4.0800000000000054      51.000000000000014      48.960000000000008
   153   1      4.0800000000000054      53.039999999999999      46.920000000000009
   154   1      2.0400000000000063      51.000000000000014      51.000000000000014
   155   1      2.0400000000000063      53.039999999999999      53.039999999999999
   156   1      4.0800000000000054      51.000000000000014      53.039999999999999
   157   1      4.0800000000000054      53.039999999999999      51.000000000000014
   158   1      2.0400000000000063      51.000000000000014      55.080000000000013
   159   1      2.0400000000000063      53.039999999999999      57.120000000000012
   160   1      4.0800000000000054      51.000000000000014      57.120000000000012
   161   1      4.0800000000000054      53.039999999999999      55.080000000000013
   162   1      4.0800000000000054      51.000000000000014       61.20000000000001
   163   1      4.0800000000000054      53.039999999999999      59.160000000000011
   164   1      4.0800000000000054      53.039999999999999      63.240000000000009
   165   1      4.0800000000000054      55.080000000000013      32.640000000000008
   166   1      4.0800000000000054      57.120000000000012      30.600000000000009
   167   1      2.0400000000000063      57.120000000000012      36.720000000000006
   168   1      4.0800000000000054      55.080000000000013      36.720000000000006
   169   1      4.0800000000000054      57.120000000000012      34.680000000000007
   170   1      2.0400000000000063      55.080000000000013      38.760000000000005
   171   1      2.0400000000000063      57.120000000000012      40.800000000000004
   172   1      4.0800000000000054      55.080000000000013      40.800000000000004
   173   1      4.0800000000000054      57.120000000000012      38.760000000000005
   174   1      2.0400000000000063      55.080000000000013      42.840000000000011
   175   1      2.0400000000000063      57.120000000000012       44.88000000000001
   176   1      4.0800000000000054      55.080000000000013       44.88000000000001
   177   1      4.0800000000000054      57.120000000000012      42.840000000000011
   178   1      2.0400000000000063      55.080000000000013      46.920000000000009
   179   1      2.0400000000000063      57.120000000000012      48.960000000000008
   180   1      4.0800000000000054      55.080000000000013      48.960000000000008
   181   1      4.0800000000000054      57.120000000000012      46.920000000000009
   182   1      2.0400000000000063      55.080000000000013      51.000000000000014
   183   1      2.0400000000000063      57.120000000000012      53.039999999999999
   184   1      4.0800000000000054      55.080000000000013      53.039999999999999
   185   1      4.0800000000000054      57.120000000000012      51.000000000000014
   186   1      2.0400000000000063      55.080000000000013      55.080000000000013
   187   1      2.0400000000000063      57.120000000000012      57.120000000000012
   188   1      4.0800000000000054      55.080000000000013      57.120000000000012
   189   1      4.0800000000000054      57.120000000000012      55.080000000000013
   190   1      4.0800000000000054      55.080000000000013       61.20000000000001
   191   1      4.0800000000000054      57.120000000000012      59.160000000000011
   192   1      4.0800000000000054      57.120000000000012      63.240000000000009
   193   1      4.0800000000000054      59.160000000000011      32.640000000000008
   194   1      4.0800000000000054       61.20000000000001      30.600000000000009
   195   1      4.0800000000000054      59.160000000000011      36.720000000000006
   196   1      4.0800000000000054       61.20000000000001      34.680000000000007
   197   1      4.0800000000000054      59.160000000000011      40.800000000000004
   198   1      4.0800000000000054       61.20000000000001      38.760000000000005
   199   1      4.0800000000000054      59.160000000000011       44.88000000000001
   200   1      4.0800000000000054       61.20000000000001      42.840000000000011
   201   1      4.0800000000000054      59.160000000000011      48.960000000000008
   202   1      4.0800000000000054       61.20000000000001      46.920000000000009
   203   1      4.0800000000000054      59.160000000000011      53.039999999999999
   204   1      4.0800000000000054       61.20000000000001      51.000000000000014
   205   1      4.0800000000000054      59.160000000000011      57.120000000000012
   206   1      4.0800000000000054       61.20000000000001      55.080000000000013
   207   1      4.0800000000000054      59.160000000000011       61.20000000000001
   208   1      4.0800000000000054       61.20000000000001      59.160000000000011
   209   1      4.0800000000000054       61.20000000000001      63.240000000000009
   210   1      4.0800000000000054      63.240000000000009      32.640000000000008
   211   1      4.0800000000000054      63.240000000000009      36.720000000000006
   212   1      4.0800000000000054      63.240000000000009      40.800000000000004
   213   1      4.0800000000000054      63.240000000000009       44.88000000000001
   214   1      4.0800000000000054      63.240000000000009      48.960000000000008
   215   1      4.0800000000000054      63.240000000000009      53.039999999999999
   216   1      4.0800000000000054      63.240000000000009      57.120000000000012
   217   1      4.0800000000000054      63.240000000000009       61.20000000000001
   218   1      8.1600000000000037      18.360000000000007      20.400000000000006
   219   1      8.1600000000000037      20.400000000000006      18.360000000000007
   220   1      8.1600000000000037      18.360000000000007      24.480000000000004
   221   1      8.1600000000000037      20.400000000000006      22.440000000000008
   222   1      8.1600000000000037      18.360000000000007      28.560000000000009
   223   1      8.1600000000000037      20.400000000000006       26.52000000000001
   224   1      8.1600000000000037      18.360000000000007      32.640000000000008
   225   1      8.1600000000000037      20.400000000000006      30.600000000000009
   226   1      8.1600000000000037      18.360000000000007      36.720000000000006
   227   1      8.1600000000000037      20.400000000000006      34.680000000000007
   228   1      8.1600000000000037      18.360000000000007      40.800000000000004
   229   1      8.1600000000000037      20.400000000000006      38.760000000000005
   230   1      8.1600000000000037      18.360000000000007       44.88000000000001
   231   1      8.1600000000000037      20.400000000000006      42.840000000000011
   232   1      8.1600000000000037      18.360000000000007      48.960000000000008
   233   1      8.1600000000000037      20.400000000000006      46.920000000000009
   234   1      8.1600000000000037      18.360000000000007      53.039999999999999
   235   1      8.1600000000000037      20.400000000000006      51.000000000000014
   236   1      8.1600000000000037      18.360000000000007      57.120000000000012
   237   1      8.1600000000000037      20.400000000000006      55.080000000000013
   238   1      8.1600000000000037      18.360000000000007       61.20000000000001
   239   1      8.1600000000000037      20.400000000000006      59.160000000000011
   240   1      8.1600000000000037      18.360000000000007      65.280000000000015
   241   1      8.1600000000000037      20.400000000000006      63.240000000000009
   242   1      8.1600000000000037      18.360000000000007      69.360000000000014
   243   1      8.1600000000000037      20.400000000000006      67.320000000000007
   244   1      8.1600000000000037      18.360000000000007      73.440000000000012
   245   1      8.1600000000000037      20.400000000000006      71.400000000000006
   246   1      8.1600000000000037      20.400000000000006      75.480000000000004
   247   1      8.1600000000000037      22.440000000000008      20.400000000000006
   248   1      8.1600000000000037      24.480000000000004      18.360000000000007
   249   1      6.1200000000000117      24.480000000000004      24.480000000000004
   250   1      8.1600000000000037      22.440000000000008      24.480000000000004
   251   1      8.1600000000000037      24.480000000000004      22.440000000000008
   252   1      6.1200000000000117      24.480000000000004      28.560000000000009
   253   1      8.1600000000000037      22.440000000000008      28.560000000000009
   254   1      8.1600000000000037      24.480000000000004       26.52000000000001
   255   1      6.1200000000000117      24.480000000000004      32.640000000000008
   256   1      8.1600000000000037      22.440000000000008      32.640000000000008
   257   1      8.1600000000000037      24.480000000000004      30.600000000000009
   258   1      6.1200000000000117      24.480000000000004      36.720000000000006
   259   1      8.1600000000000037      22.440000000000008      36.720000000000006
   260   1      8.1600000000000037      24.480000000000004      34.680000000000007
   261   1      6.1200000000000117      24.480000000000004      40.800000000000004
   262   1      8.1600000000000037      22.440000000000008      40.800000000000004
   263   1      8.1600000000000037      24.480000000000004      38.760000000000005
   264   1      6.1200000000000117      24.480000000000004       44.88000000000001
   265   1      8.1600000000000037      22.440000000000008       44.88000000000001
   266   1      8.1600000000000037      24.480000000000004      42.840000000000011
   267   1      6.1200000000000117      24.480000000000004      48.960000000000008
   268   1      8.1600000000000037      22.440000000000008      48.960000000000008
   269   1      8.1600000000000037      24.480000000000004      46.920000000000009
   270   1      6.1200000000000117      24.480000000000004      53.039999999999999
   271   1      8.1600000000000037      22.440000000000008      53.039999999999999
   272   1      8.1600000000000037      24.480000000000004      51.000000000000014
   273   1      6.1200000000000117      24.480000000000004      57.120000000000012
   274   1      8.1600000000000037      22.440000000000008      57.120000000000012
   275   1      8.1600000000000037      24.480000000000004      55.080000000000013
   276   1      6.1200000000000117      24.480000000000004       61.20000000000001
   277   1      8.1600000000000037      22.440000000000008       61.20000000000001
   278   1      8.1600000000000037      24.480000000000004      59.160000000000011
   279   1      6.1200000000000117      24.480000000000004      65.280000000000015
   280   1      8.1600000000000037      22.440000000000008      65.280000000000015
   281   1      8.1600000000000037      24.480000000000004      63.240000000000009
   282   1      6.1200000000000117      24.480000000000004      69.360000000000014
   283   1      8.1600000000000037      22.440000000000008      69.360000000000014
   284   1      8.1600000000000037      24.480000000000004      67.320000000000007
   285   1      8.1600000000000037      22.440000000000008      73.440000000000012
   286   1      8.1600000000000037      24.480000000000004      71.400000000000006
   287   1      8.1600000000000037      24.480000000000004      75.480000000000004
   288   1      8.1600000000000037       26.52000000000001      20.400000000000006
   289   1      8.1600000000000037      28.560000000000009      18.360000000000007
   290   1      6.1200000000000117      28.560000000000009      24.480000000000004
   291   1      8.1600000000000037       26.52000000000001      24.480000000000004
   292   1      8.1600000000000037      28.560000000000009      22.440000000000008
   293   1      6.1200000000000117       26.52000000000001       26.52000000000001
   294   1      6.1200000000000117      28.560000000000009      28.560000000000009
   295   1      8.1600000000000037       26.52000000000001      28.560000000000009
   296   1      8.1600000000000037      28.560000000000009       26.52000000000001
   297   1      6.1200000000000117       26.52000000000001      30.600000000000009
   298   1      6.1200000000000117      28.560000000000009      32.640000000000008
   299   1      8.1600000000000037       26.52000000000001      32.640000000000008
   300   1      8.1600000000000037      28.560000000000009      30.600000000000009
   301   1      6.1200000000000117       26.52000000000001      34.680000000000007
   302   1      6.1200000000000117      28.560000000000009      36.720000000000006
   303   1      8.1600000000000037       26.52000000000001      36.720000000000006
   304   1      8.1600000000000037      28.560000000000009      34.680000000000007
   305   1      6.1200000000000117       26.52000000000001      38.760000000000005
   306   1      6.1200000000000117      28.560000000000009      40.800000000000004
   307   1      8.1600000000000037       26.52000000000001      40.800000000000004
   308   1      8.1600000000000037      28.560000000000009      38.760000000000005
   309   1      6.1200000000000117       26.52000000000001      42.840000000000011
   310   1      6.1200000000000117      28.560000000000009       44.88000000000001
   311   1      8.1600000000000037       26.52000000000001       44.88000000000001
   312   1      8.1600000000000037      28.560000000000009      42.840000000000011
   313   1      6.1200000000000117       26.52000000000001      46.920000000000009
   314   1      6.1200000000000117      28.560000000000009      48.960000000000008
   315   1      8.1600000000000037       26.52000000000001      48.960000000000008
   316   1      8.1600000000000037      28.560000000000009      46.920000000000009
   317   1      6.1200000000000117       26.52000000000001      51.000000000000014
   318   1      6.1200000000000117      28.560000000000009      53.039999999999999
   319   1      8.1600000000000037       26.52000000000001      53.039999999999999
   320   1      8.1600000000000037      28.560000000000009      51.000000000000014
   321   1      6.1200000000000117       26.52000000000001      55.080000000000013
   322   1      6.1200000000000117      28.560000000000009      57.120000000000012
   323   1      8.1600000000000037       26.52000000000001      57.120000000000012
   324   1      8.1600000000000037      28.560000000000009      55.080000000000013
   325   1      6.1200000000000117       26.52000000000001      59.160000000000011
   326   1      6.1200000000000117      28.560000000000009       61.20000000000001
   327   1      8.1600000000000037       26.52000000000001       61.20000000000001
   328   1      8.1600000000000037      28.560000000000009      59.160000000000011
   329   1      6.1200000000000117       26.52000000000001      63.240000000000009
   330   1      6.1200000000000117      28.560000000000009      65.280000000000015
   331   1      8.1600000000000037       26.52000000000001      65.280000000000015
   332   1      8.1600000000000037      28.560000000000009      63.240000000000009
   333   1      6.1200000000000117       26.52000000000001      67.320000000000007
   334   1      6.1200000000000117      28.560000000000009      69.360000000000014
   335   1      8.1600000000000037       26.52000000000001      69.360000000000014
   336   1      8.1600000000000037      28.560000000000009      67.320000000000007
   337   1      8.1600000000000037       26.52000000000001      73.440000000000012
   338   1      8.1600000000000037      28.560000000000009      71.400000000000006
   339   1      8.1600000000000037      28.560000000000009      75.480000000000004
   340   1      8.1600000000000037      30.600000000000009      20.400000000000006
   341   1      8.1600000000000037      32.640000000000008      18.360000000000007
   342   1      6.1200000000000117      32.640000000000008      24.480000000000004
   343   1      8.1600000000000037      30.600000000000009      24.480000000000004
   344   1      8.1600000000000037      32.640000000000008      22.440000000000008
   345   1      6.1200000000000117      30.600000000000009       26.52000000000001
   346   1      6.1200000000000117      32.640000000000008      28.560000000000009
   347   1      8.1600000000000037      30.600000000000009      28.560000000000009
   348   1      8.1600000000000037      32.640000000000008       26.52000000000001
   349   1      6.1200000000000117      30.600000000000009      30.600000000000009
   350   1      6.1200000000000117      32.640000000000008      32.640000000000008
   351   1      8.1600000000000037      30.600000000000009      32.640000000000008
   352   1      8.1600000000000037      32.640000000000008      30.600000000000009
   353   1      6.1200000000000117      30.600000000000009      34.680000000000007
   354   1      6.1200000000000117      32.640000000000008      36.720000000000006
   355   1      8.1600000000000037      30.600000000000009      36.720000000000006
   356   1      8.1600000000000037      32.640000000000008      34.680000000000007
   357   1      6.1200000000000117      30.600000000000009      38.760000000000005
   358   1      6.1200000000000117      32.640000000000008      40.800000000000004