LAMMPS data file via write_data, version 30 Nov 2020, timestep = 0

30329 atoms
2 atom types

0 95 xlo xhi
0 95 ylo yhi
0 95 zlo zhi

Masses

1 106.42
2 58.69

Atoms # atomic

1 1 94.99999999999999 44.69999999999999 46.56249999999999 0 0 0
2 1 94.99999999999999 46.56249999999999 44.69999999999999 0 0 0
5 2 3.7249999999999877 35.38749999999999 44.69999999999999 0 0 0
6 1 3.7249999999999877 37.249999999999986 42.83749999999999 0 0 0
8 2 3.7249999999999877 37.249999999999986 46.56249999999999 0 0 0
10 2 3.7249999999999877 39.11249999999999 40.97499999999999 0 0 0
11 1 3.7249999999999877 40.97499999999999 39.11249999999999 0 0 0
12 1 1.86249999999999 40.97499999999999 44.69999999999999 0 0 0
13 2 3.7249999999999877 39.11249999999999 44.69999999999999 0 0 0
14 2 3.7249999999999877 40.97499999999999 42.83749999999999 0 0 0
15 2 1.86249999999999 39.11249999999999 46.56249999999999 0 0 0
18 2 3.7249999999999877 40.97499999999999 46.56249999999999 0 0 0
22 2 3.7249999999999877 42.83749999999999 37.249999999999986 0 0 0
23 2 3.7249999999999877 44.69999999999999 35.38749999999999 0 0 0
24 1 1.86249999999999 44.69999999999999 40.97499999999999 0 0 0
25 2 3.7249999999999877 42.83749999999999 40.97499999999999 0 0 0
26 2 3.7249999999999877 44.69999999999999 39.11249999999999 0 0 0
27 2 1.86249999999999 42.83749999999999 42.83749999999999 0 0 0
28 1 1.86249999999999 44.69999999999999 44.69999999999999 0 0 0
29 2 3.7249999999999877 42.83749999999999 44.69999999999999 0 0 0
30 1 3.7249999999999877 44.69999999999999 42.83749999999999 0 0 0
31 2 1.86249999999999 42.83749999999999 46.56249999999999 0 0 0
34 2 3.7249999999999877 44.69999999999999 46.56249999999999 0 0 0
42 1 3.7249999999999877 46.56249999999999 37.249999999999986 0 0 0
44 1 1.86249999999999 46.56249999999999 39.11249999999999 0 0 0
46 1 3.7249999999999877 46.56249999999999 40.97499999999999 0 0 0
48 1 1.86249999999999 46.56249999999999 42.83749999999999 0 0 0
50 1 3.7249999999999877 46.56249999999999 44.69999999999999 0 0 0
52 2 1.86249999999999 46.56249999999999 46.56249999999999 0 0 0
90 1 7.449999999999988 26.07499999999999 46.56249999999999 0 0 0
91 2 7.449999999999988 27.93749999999999 40.97499999999999 0 0 0
92 2 7.449999999999988 29.79999999999999 39.11249999999999 0 0 0
93 2 7.449999999999988 27.93749999999999 44.69999999999999 0 0 0
94 1 7.449999999999988 29.79999999999999 42.83749999999999 0 0 0
96 2 7.449999999999988 29.79999999999999 46.56249999999999 0 0 0
100 2 7.449999999999988 31.662499999999984 33.524999999999984 0 0 0
101 2 7.449999999999988 33.524999999999984 31.662499999999984 0 0 0
102 1 7.449999999999988 31.662499999999984 37.249999999999986 0 0 0
103 2 7.449999999999988 33.524999999999984 35.38749999999999 0 0 0
104 1 5.5874999999999915 33.524999999999984 40.97499999999999 0 0 0
105 2 7.449999999999988 31.662499999999984 40.97499999999999 0 0 0
106 1 7.449999999999988 33.524999999999984 39.11249999999999 0 0 0
107 2 5.5874999999999915 31.662499999999984 42.83749999999999 0 0 0
108 1 5.5874999999999915 33.524999999999984 44.69999999999999 0 0 0
109 2 7.449999999999988 31.662499999999984 44.69999999999999 0 0 0
110 1 7.449999999999988 33.524999999999984 42.83749999999999 0 0 0
111 2 5.5874999999999915 31.662499999999984 46.56249999999999 0 0 0
114 1 7.449999999999988 33.524999999999984 46.56249999999999 0 0 0
124 1 7.449999999999988 35.38749999999999 33.524999999999984 0 0 0
125 1 7.449999999999988 37.249999999999986 31.662499999999984 0 0 0
126 1 5.5874999999999915 35.38749999999999 35.38749999999999 0 0 0
127 1 5.5874999999999915 37.249999999999986 37.249999999999986 0 0 0
128 2 7.449999999999988 35.38749999999999 37.249999999999986 0 0 0
129 1 7.449999999999988 37.249999999999986 35.38749999999999 0 0 0
130 2 5.5874999999999915 35.38749999999999 39.11249999999999 0 0 0
131 1 5.5874999999999915 37.249999999999986 40.97499999999999 0 0 0
132 2 7.449999999999988 35.38749999999999 40.97499999999999 0 0 0
133 1 7.449999999999988 37.249999999999986 39.11249999999999 0 0 0
134 1 5.5874999999999915 35.38749999999999 42.83749999999999 0 0 0
135 2 5.5874999999999915 37.249999999999986 44.69999999999999 0 0 0
136 2 7.449999999999988 35.38749999999999 44.69999999999999 0 0 0
137 2 7.449999999999988 37.249999999999986 42.83749999999999 0 0 0
138 2 5.5874999999999915 35.38749999999999 46.56249999999999 0 0 0
141 1 7.449999999999988 37.249999999999986 46.56249999999999 0 0 0
154 2 7.449999999999988 39.11249999999999 29.79999999999999 0 0 0
155 1 7.449999999999988 40.97499999999999 27.93749999999999 0 0 0
156 2 5.5874999999999915 40.97499999999999 33.524999999999984 0 0 0
157 1 7.449999999999988 39.11249999999999 33.524999999999984 0 0 0
158 1 7.449999999999988 40.97499999999999 31.662499999999984 0 0 0
159 2 5.5874999999999915 39.11249999999999 35.38749999999999 0 0 0
160 1 5.5874999999999915 40.97499999999999 37.249999999999986 0 0 0
161 1 7.449999999999988 39.11249999999999 37.249999999999986 0 0 0
162 1 7.449999999999988 40.97499999999999 35.38749999999999 0 0 0
163 1 5.5874999999999915 39.11249999999999 39.11249999999999 0 0 0
164 2 5.5874999999999915 40.97499999999999 40.97499999999999 0 0 0
165 1 7.449999999999988 39.11249999999999 40.97499999999999 0 0 0
166 2 7.449999999999988 40.97499999999999 39.11249999999999 0 0 0
167 2 5.5874999999999915 39.11249999999999 42.83749999999999 0 0 0
168 1 5.5874999999999915 40.97499999999999 44.69999999999999 0 0 0
169 1 7.449999999999988 39.11249999999999 44.69999999999999 0 0 0
170 1 7.449999999999988 40.97499999999999 42.83749999999999 0 0 0
171 1 5.5874999999999915 39.11249999999999 46.56249999999999 0 0 0
174 2 7.449999999999988 40.97499999999999 46.56249999999999 0 0 0
190 2 7.449999999999988 42.83749999999999 29.79999999999999 0 0 0
191 1 7.449999999999988 44.69999999999999 27.93749999999999 0 0 0
192 1 5.5874999999999915 42.83749999999999 31.662499999999984 0 0 0
193 1 5.5874999999999915 44.69999999999999 33.524999999999984 0 0 0
194 2 7.449999999999988 42.83749999999999 33.524999999999984 0 0 0
195 2 7.449999999999988 44.69999999999999 31.662499999999984 0 0 0
196 1 5.5874999999999915 42.83749999999999 35.38749999999999 0 0 0
197 1 5.5874999999999915 44.69999999999999 37.249999999999986 0 0 0
198 1 7.449999999999988 42.83749999999999 37.249999999999986 0 0 0
199 2 7.449999999999988 44.69999999999999 35.38749999999999 0 0 0
200 1 5.5874999999999915 42.83749999999999 39.11249999999999 0 0 0
201 2 5.5874999999999915 44.69999999999999 40.97499999999999 0 0 0
202 1 7.449999999999988 42.83749999999999 40.97499999999999 0 0 0
203 2 7.449999999999988 44.69999999999999 39.11249999999999 0 0 0
204 2 5.5874999999999915 42.83749999999999 42.83749999999999 0 0 0
205 2 5.5874999999999915 44.69999999999999 44.69999999999999 0 0 0
206 1 7.449999999999988 42.83749999999999 44.69999999999999 0 0 0
207 2 7.449999999999988 44.69999999999999 42.83749999999999 0 0 0
208 1 5.5874999999999915 42.83749999999999 46.56249999999999 0 0 0
211 1 7.449999999999988 44.69999999999999 46.56249999999999 0 0 0
228 1 7.449999999999988 46.56249999999999 26.07499999999999 0 0 0
229 1 7.449999999999988 46.56249999999999 29.79999999999999 0 0 0
231 1 5.5874999999999915 46.56249999999999 31.662499999999984 0 0 0
233 1 7.449999999999988 46.56249999999999 33.524999999999984 0 0 0
235 1 5.5874999999999915 46.56249999999999 35.38749999999999 0 0 0
237 2 7.449999999999988 46.56249999999999 37.249999999999986 0 0 0
239 1 5.5874999999999915 46.56249999999999 39.11249999999999 0 0 0
241 2 7.449999999999988 46.56249999999999 40.97499999999999 0 0 0
243 1 5.5874999999999915 46.56249999999999 42.83749999999999 0 0 0
245 1 7.449999999999988 46.56249999999999 44.69999999999999 0 0 0
247 2 5.5874999999999915 46.56249999999999 46.56249999999999 0 0 0
387 2 11.17499999999999 16.76249999999999 44.69999999999999 0 0 0
388 2 11.17499999999999 18.62499999999999 42.83749999999999 0 0 0
390 1 11.17499999999999 18.62499999999999 46.56249999999999 0 0 0
392 1 11.17499999999999 20.48749999999999 37.249999999999986 0 0 0
393 1 11.17499999999999 22.34999999999999 35.38749999999999 0 0 0
394 1 11.17499999999999 20.48749999999999 40.97499999999999 0 0 0
395 2 11.17499999999999 22.34999999999999 39.11249999999999 0 0 0
396 2 9.312499999999993 22.34999999999999 44.69999999999999 0 0 0
397 2 11.17499999999999 20.48749999999999 44.69999999999999 0 0 0
398 1 11.17499999999999 22.34999999999999 42.83749999999999 0 0 0
399 1 9.312499999999993 20.48749999999999 46.56249999999999 0 0 0
402 2 11.17499999999999 22.34999999999999 46.56249999999999 0 0 0
408 2 11.17499999999999 24.212499999999988 29.79999999999999 0 0 0
409 2 11.17499999999999 26.07499999999999 27.93749999999999 0 0 0
410 1 11.17499999999999 24.212499999999988 33.524999999999984 0 0 0
411 1 11.17499999999999 26.07499999999999 31.662499999999984 0 0 0
412 2 9.312499999999993 26.07499999999999 37.249999999999986 0 0 0
413 1 11.17499999999999 24.212499999999988 37.249999999999986 0 0 0
414 2 11.17499999999999 26.07499999999999 35.38749999999999 0 0 0
415 2 9.312499999999993 24.212499999999988 39.11249999999999 0 0 0
416 1 9.312499999999993 26.07499999999999 40.97499999999999 0 0 0
417 2 11.17499999999999 24.212499999999988 40.97499999999999 0 0 0
418 1 11.17499999999999 26.07499999999999 39.11249999999999 0 0 0
419 1 9.312499999999993 24.212499999999988 42.83749999999999 0 0 0
420 2 9.312499999999993 26.07499999999999 44.69999999999999 0 0 0
421 2 11.17499999999999 24.212499999999988 44.69999999999999 0 0 0
422 1 11.17499999999999 26.07499999999999 42.83749999999999 0 0 0
423 1 9.312499999999993 24.212499999999988 46.56249999999999 0 0 0
426 2 11.17499999999999 26.07499999999999 46.56249999999999 0 0 0
440 2 11.17499999999999 27.93749999999999 26.07499999999999 0 0 0
441 1 11.17499999999999 29.79999999999999 24.212499999999988 0 0 0
442 1 9.312499999999993 29.79999999999999 29.79999999999999 0 0 0
443 1 11.17499999999999 27.93749999999999 29.79999999999999 0 0 0
444 2 11.17499999999999 29.79999999999999 27.93749999999999 0 0 0
445 2 9.312499999999993 27.93749999999999 31.662499999999984 0 0 0
446 2 9.312499999999993 29.79999999999999 33.524999999999984 0 0 0
447 1 11.17499999999999 27.93749999999999 33.524999999999984 0 0 0
448 1 11.17499999999999 29.79999999999999 31.662499999999984 0 0 0
449 1 9.312499999999993 27.93749999999999 35.38749999999999 0 0 0
450 2 9.312499999999993 29.79999999999999 37.249999999999986 0 0 0
451 2 11.17499999999999 27.93749999999999 37.249999999999986 0 0 0
452 2 11.17499999999999 29.79999999999999 35.38749999999999 0 0 0
453 2 9.312499999999993 27.93749999999999 39.11249999999999 0 0 0
454 2 9.312499999999993 29.79999999999999 40.97499999999999 0 0 0
455 2 11.17499999999999 27.93749999999999 40.97499999999999 0 0 0
456 2 11.17499999999999 29.79999999999999 39.11249999999999 0 0 0
457 1 9.312499999999993 27.93749999999999 42.83749999999999 0 0 0
458 2 9.312499999999993 29.79999999999999 44.69999999999999 0 0 0
459 2 11.17499999999999 27.93749999999999 44.69999999999999 0 0 0
460 1 11.17499999999999 29.79999999999999 42.83749999999999 0 0 0
461 1 9.312499999999993 27.93749999999999 46.56249999999999 0 0 0
464 2 11.17499999999999 29.79999999999999 46.56249999999999 0 0 0
484 1 11.17499999999999 31.662499999999984 26.07499999999999 0 0 0
485 2 11.17499999999999 33.524999999999984 24.212499999999988 0 0 0
486 2 9.312499999999993 31.662499999999984 27.93749999999999 0 0 0
487 2 9.312499999999993 33.524999999999984 29.79999999999999 0 0 0
488 2 11.17499999999999 31.662499999999984 29.79999999999999 0 0 0
489 1 11.17499999999999 33.524999999999984 27.93749999999999 0 0 0
490 1 9.312499999999993 31.662499999999984 31.662499999999984 0 0 0
491 1 9.312499999999993 33.524999999999984 33.524999999999984 0 0 0
492 2 11.17499999999999 31.662499999999984 33.524999999999984 0 0 0
493 1 11.17499999999999 33.524999999999984 31.662499999999984 0 0 0
494 1 9.312499999999993 31.662499999999984 35.38749999999999 0 0 0
495 2 9.312499999999993 33.524999999999984 37.249999999999986 0 0 0
496 2 11.17499999999999 31.662499999999984 37.249999999999986 0 0 0
497 1 11.17499999999999 33.524999999999984 35.38749999999999 0 0 0
498 1 9.312499999999993 31.662499999999984 39.11249999999999 0 0 0
499 2 9.312499999999993 33.524999999999984 40.97499999999999 0 0 0
500 1 11.17499999999999 31.662499999999984 40.97499999999999 0 0 0
501 2 11.17499999999999 33.524999999999984 39.11249999999999 0 0 0
502 2 9.312499999999993 31.662499999999984 42.83749999999999 0 0 0
503 1 9.312499999999993 33.524999999999984 44.69999999999999 0 0 0
504 2 11.17499999999999 31.662499999999984 44.69999999999999 0 0 0
505 1 11.17499999999999 33.524999999999984 42.83749999999999 0 0 0
506 2 9.312499999999993 31.662499999999984 46.56249999999999 0 0 0
509 1 11.17499999999999 33.524999999999984 46.56249999999999 0 0 0
530 1 11.17499999999999 35.38749999999999 22.34999999999999 0 0 0
531 1 11.17499999999999 37.249999999999986 20.48749999999999 0 0 0
532 2 9.312499999999993 37.249999999999986 26.07499999999999 0 0 0
533 1 11.17499999999999 35.38749999999999 26.07499999999999 0 0 0
534 1 11.17499999999999 37.249999999999986 24.212499999999988 0 0 0
535 2 9.312499999999993 35.38749999999999 27.93749999999999 0 0 0
536 1 9.312499999999993 37.249999999999986 29.79999999999999 0 0 0
537 2 11.17499999999999 35.38749999999999 29.79999999999999 0 0 0
538 1 11.17499999999999 37.249999999999986 27.93749999999999 0 0 0
539 1 9.312499999999993 35.38749999999999 31.662499999999984 0 0 0
540 1 9.312499999999993 37.249999999999986 33.524999999999984 0 0 0
541 1 11.17499999999999 35.38749999999999 33.524999999999984 0 0 0
542 2 11.17499999999999 37.249999999999986 31.662499999999984 0 0 0
543 1 9.312499999999993 35.38749999999999 35.38749999999999 0 0 0
544 1 9.312499999999993 37.249999999999986 37.249999999999986 0 0 0
545 1 11.17499999999999 35.38749999999999 37.249999999999986 0 0 0
546 2 11.17499999999999 37.249999999999986 35.38749999999999 0 0 0
547 1 9.312499999999993 35.38749999999999 39.11249999999999 0 0 0
548 1 9.312499999999993 37.249999999999986 40.97499999999999 0 0 0
549 1 11.17499999999999 35.38749999999999 40.97499999999999 0 0 0
550 1 11.17499999999999 37.249999999999986 39.11249999999999 0 0 0
551 1 9.312499999999993 35.38749999999999 42.83749999999999 0 0 0
552 1 9.312499999999993 37.249999999999986 44.69999999999999 0 0 0
553 2 11.17499999999999 35.38749999999999 44.69999999999999 0 0 0
554 1 11.17499999999999 37.249999999999986 42.83749999999999 0 0 0
555 1 9.312499999999993 35.38749999999999 46.56249999999999 0 0 0
558 2 11.17499999999999 37.249999999999986 46.56249999999999 0 0 0
582 1 11.17499999999999 39.11249999999999 22.34999999999999 0 0 0
583 1 11.17499999999999 40.97499999999999 20.48749999999999 0 0 0
584 2 9.312499999999993 39.11249999999999 24.212499999999988 0 0 0
585 2 9.312499999999993 40.97499999999999 26.07499999999999 0 0 0
586 2 11.17499999999999 39.11249999999999 26.07499999999999 0 0 0
587 1 11.17499999999999 40.97499999999999 24.212499999999988 0 0 0
588 2 9.312499999999993 39.11249999999999 27.93749999999999 0 0 0
589 1 9.312499999999993 40.97499999999999 29.79999999999999 0 0 0
590 1 11.17499999999999 39.11249999999999 29.79999999999999 0 0 0
591 2 11.17499999999999 40.97499999999999 27.93749999999999 0 0 0
592 2 9.312499999999993 39.11249999999999 31.662499999999984 0 0 0
593 2 9.312499999999993 40.97499999999999 33.524999999999984 0 0 0
594 1 11.17499999999999 39.11249999999999 33.524999999999984 0 0 0
595 2 11.17499999999999 40.97499999999999 31.662499999999984 0 0 0
596 1 9.312499999999993 39.11249999999999 35.38749999999999 0 0 0
597 1 9.312499999999993 40.97499999999999 37.249999999999986 0 0 0
598 2 11.17499999999999 39.11249999999999 37.249999999999986 0 0 0
599 2 11.17499999999999 40.97499999999999 35.38749999999999 0 0 0
600 1 9.312499999999993 39.11249999999999 39.11249999999999 0 0 0
601 1 9.312499999999993 40.97499999999999 40.97499999999999 0 0 0
602 2 11.17499999999999 39.11249999999999 40.97499999999999 0 0 0
603 2 11.17499999999999 40.97499999999999 39.11249999999999 0 0 0
604 2 9.312499999999993 39.11249999999999 42.83749999999999 0 0 0
605 2 9.312499999999993 40.97499999999999 44.69999999999999 0 0 0
606 1 11.17499999999999 39.11249999999999 44.69999999999999 0 0 0
607 1 11.17499999999999 40.97499999999999 42.83749999999999 0 0 0
608 1 9.312499999999993 39.11249999999999 46.56249999999999 0 0 0
611 2 11.17499999999999 40.97499999999999 46.56249999999999 0 0 0
636 2 11.17499999999999 42.83749999999999 18.62499999999999 0 0 0
637 1 11.17499999999999 44.69999999999999 16.76249999999999 0 0 0
638 2 9.312499999999993 44.69999999999999 22.34999999999999 0 0 0
639 2 11.17499999999999 42.83749999999999 22.34999999999999 0 0 0
640 2 11.17499999999999 44.69999999999999 20.48749999999999 0 0 0
641 1 9.312499999999993 42.83749999999999 24.212499999999988 0 0 0
642 1 9.312499999999993 44.69999999999999 26.07499999999999 0 0 0
643 1 11.17499999999999 42.83749999999999 26.07499999999999 0 0 0
644 1 11.17499999999999 44.69999999999999 24.212499999999988 0 0 0
645 1 9.312499999999993 42.83749999999999 27.93749999999999 0 0 0
646 1 9.312499999999993 44.69999999999999 29.79999999999999 0 0 0
647 2 11.17499999999999 42.83749999999999 29.79999999999999 0 0 0
648 2 11.17499999999999 44.69999999999999 27.93749999999999 0 0 0
649 2 9.312499999999993 42.83749999999999 31.662499999999984 0 0 0
650 1 9.312499999999993 44.69999999999999 33.524999999999984 0 0 0
651 2 11.17499999999999 42.83749999999999 33.524999999999984 0 0 0
652 1 11.17499999999999 44.69999999999999 31.662499999999984 0 0 0
653 2 9.312499999999993 42.83749999999999 35.38749999999999 0 0 0
654 1 9.312499999999993 44.69999999999999 37.249999999999986 0 0 0
655 2 11.17499999999999 42.83749999999999 37.249999999999986 0 0 0
656 1 11.17499999999999 44.69999999999999 35.38749999999999 0 0 0
657 2 9.312499999999993 42.83749999999999 39.11249999999999 0 0 0
658 2 9.312499999999993 44.69999999999999 40.97499999999999 0 0 0
659 1 11.17499999999999 42.83749999999999 40.97499999999999 0 0 0
660 1 11.17499999999999 44.69999999999999 39.11249999999999 0 0 0
661 1 9.312499999999993 42.83749999999999 42.83749999999999 0 0 0
662 2 9.312499999999993 44.69999999999999 44.69999999999999 0 0 0
663 2 11.17499999999999 42.83749999999999 44.69999999999999 0 0 0
664 1 11.17499999999999 44.69999999999999 42.83749999999999 0 0 0
665 2 9.312499999999993 42.83749999999999 46.56249999999999 0 0 0
668 1 11.17499999999999 44.69999999999999 46.56249999999999 0 0 0
696 2 11.17499999999999 46.56249999999999 18.62499999999999 0 0 0
698 2 9.312499999999993 46.56249999999999 20.48749999999999 0 0 0
700 2 11.17499999999999 46.56249999999999 22.34999999999999 0 0 0
702 1 9.312499999999993 46.56249999999999 24.212499999999988 0 0 0
704 1 11.17499999999999 46.56249999999999 26.07499999999999 0 0 0
706 1 9.312499999999993 46.56249999999999 27.93749999999999 0 0 0
708 1 11.17499999999999 46.56249999999999 29.79999999999999 0 0 0
710 1 9.312499999999993 46.56249999999999 31.662499999999984 0 0 0
712 1 11.17499999999999 46.56249999999999 33.524999999999984 0 0 0
714 2 9.312499999999993 46.56249999999999 35.38749999999999 0 0 0
716 2 11.17499999999999 46.56249999999999 37.249999999999986 0 0 0
718 2 9.312499999999993 46.56249999999999 39.11249999999999 0 0 0
720 2 11.17499999999999 46.56249999999999 40.97499999999999 0 0 0
722 2 9.312499999999993 46.56249999999999 42.83749999999999 0 0 0
724 1 11.17499999999999 46.56249999999999 44.69999999999999 0 0 0
726 2 9.312499999999993 46.56249999999999 46.56249999999999 0 0 0
1036 2 14.899999999999986 14.899999999999986 31.662499999999984 0 0 0
1037 2 14.899999999999986 14.899999999999986 35.38749999999999 0 0 0
1038 2 13.037499999999987 14.899999999999986 40.97499999999999 0 0 0
1039 1 14.899999999999986 13.037499999999987 40.97499999999999 0 0 0
1040 2 14.899999999999986 14.899999999999986 39.11249999999999 0 0 0
1041 1 13.037499999999987 13.037499999999987 42.83749999999999 0 0 0
1042 2 13.037499999999987 14.899999999999986 44.69999999999999 0 0 0
1043 1 14.899999999999986 13.037499999999987 44.69999999999999 0 0 0
1044 2 14.899999999999986 14.899999999999986 42.83749999999999 0 0 0
1045 2 13.037499999999987 13.037499999999987 46.56249999999999 0 0 0
1048 2 14.899999999999986 14.899999999999986 46.56249999999999 0 0 0
1056 1 14.899999999999986 16.76249999999999 26.07499999999999 0 0 0
1057 2 14.899999999999986 18.62499999999999 24.212499999999988 0 0 0
1058 2 14.899999999999986 16.76249999999999 29.79999999999999 0 0 0
1059 2 14.899999999999986 18.62499999999999 27.93749999999999 0 0 0
1060 1 13.037499999999987 18.62499999999999 33.524999999999984 0 0 0
1061 2 14.899999999999986 16.76249999999999 33.524999999999984 0 0 0
1062 1 14.899999999999986 18.62499999999999 31.662499999999984 0 0 0
1063 2 13.037499999999987 16.76249999999999 35.38749999999999 0 0 0
1064 2 13.037499999999987 18.62499999999999 37.249999999999986 0 0 0
1065 1 14.899999999999986 16.76249999999999 37.249999999999986 0 0 0
1066 2 14.899999999999986 18.62499999999999 35.38749999999999 0 0 0
1067 1 13.037499999999987 16.76249999999999 39.11249999999999 0 0 0
1068 2 13.037499999999987 18.62499999999999 40.97499999999999 0 0 0
1069 2 14.899999999999986 16.76249999999999 40.97499999999999 0 0 0
1070 2 14.899999999999986 18.62499999999999 39.11249999999999 0 0 0
1071 2 13.037499999999987 16.76249999999999 42.83749999999999 0 0 0
1072 2 13.037499999999987 18.62499999999999 44.69999999999999 0 0 0
1073 1 14.899999999999986 16.76249999999999 44.69999999999999 0 0 0
1074 2 14.899999999999986 18.62499999999999 42.83749999999999 0 0 0
1075 1 13.037499999999987 16.76249999999999 46.56249999999999 0 0 0
1078 2 14.899999999999986 18.62499999999999 46.56249999999999 0 0 0
1096 2 14.899999999999986 20.48749999999999 22.34999999999999 0 0 0
1097 2 14.899999999999986 22.34999999999999 20.48749999999999 0 0 0
1098 1 13.037499999999987 22.34999999999999 26.07499999999999 0 0 0
1099 1 14.899999999999986 20.48749999999999 26.07499999999999 0 0 0
1100 2 14.899999999999986 22.34999999999999 24.212499999999988 0 0 0
1101 2 13.037499999999987 20.48749999999999 27.93749999999999 0 0 0
1102 1 13.037499999999987 22.34999999999999 29.79999999999999 0 0 0
1103 2 14.899999999999986 20.48749999999999 29.79999999999999 0 0 0
1104 2 14.899999999999986 22.34999999999999 27.93749999999999 0 0 0
1105 1 13.037499999999987 20.48749999999999 31.662499999999984 0 0 0
1106 2 13.037499999999987 22.34999999999999 33.524999999999984 0 0 0
1107 1 14.899999999999986 20.48749999999999 33.524999999999984 0 0 0
1108 2 14.899999999999986 22.34999999999999 31.662499999999984 0 0 0
1109 2 13.037499999999987 20.48749999999999 35.38749999999999 0 0 0
1110 2 13.037499999999987 22.34999999999999 37.249999999999986 0 0 0
1111 1 14.899999999999986 20.48749999999999 37.249999999999986 0 0 0
1112 2 14.899999999999986 22.34999999999999 35.38749999999999 0 0 0
1113 2 13.037499999999987 20.48749999999999 39.11249999999999 0 0 0
1114 2 13.037499999999987 22.34999999999999 40.97499999999999 0 0 0
1115 1 14.899999999999986 20.48749999999999 40.97499999999999 0 0 0
1116 2 14.899999999999986 22.34999999999999 39.11249999999999 0 0 0
1117 1 13.037499999999987 20.48749999999999 42.83749999999999 0 0 0
1118 2 13.037499999999987 22.34999999999999 44.69999999999999 0 0 0
1119 2 14.899999999999986 20.48749999999999 44.69999999999999 0 0 0
1120 2 14.899999999999986 22.34999999999999 42.83749999999999 0 0 0
1121 2 13.037499999999987 20.48749999999999 46.56249999999999 0 0 0
1124 2 14.899999999999986 22.34999999999999 46.56249999999999 0 0 0
1148 1 14.899999999999986 24.212499999999988 18.62499999999999 0 0 0
1149 2 14.899999999999986 26.07499999999999 16.76249999999999 0 0 0
1150 1 13.037499999999987 26.07499999999999 22.34999999999999 0 0 0
1151 2 14.899999999999986 24.212499999999988 22.34999999999999 0 0 0
1152 1 14.899999999999986 26.07499999999999 20.48749999999999 0 0 0
1153 2 13.037499999999987 24.212499999999988 24.212499999999988 0 0 0
1154 2 13.037499999999987 26.07499999999999 26.07499999999999 0 0 0
1155 2 14.899999999999986 24.212499999999988 26.07499999999999 0 0 0
1156 1 14.899999999999986 26.07499999999999 24.212499999999988 0 0 0
1157 1 13.037499999999987 24.212499999999988 27.93749999999999 0 0 0
1158 2 13.037499999999987 26.07499999999999 29.79999999999999 0 0 0
1159 1 14.899999999999986 24.212499999999988 29.79999999999999 0 0 0
1160 1 14.899999999999986 26.07499999999999 27.93749999999999 0 0 0
1161 1 13.037499999999987 24.212499999999988 31.662499999999984 0 0 0
1162 2 13.037499999999987 26.07499999999999 33.524999999999984 0 0 0
1163 2 14.899999999999986 24.212499999999988 33.524999999999984 0 0 0
1164 1 14.899999999999986 26.07499999999999 31.662499999999984 0 0 0
1165 1 13.037499999999987 24.212499999999988 35.38749999999999 0 0 0
1166 1 13.037499999999987 26.07499999999999 37.249999999999986 0 0 0
1167 2 14.899999999999986 24.212499999999988 37.249999999999986 0 0 0
1168 2 14.899999999999986 26.07499999999999 35.38749999999999 0 0 0
1169 1 13.037499999999987 24.212499999999988 39.11249999999999 0 0 0
1170 2 13.037499999999987 26.07499999999999 40.97499999999999 0 0 0
1171 1 14.899999999999986 24.212499999999988 40.97499999999999 0 0 0
1172 1 14.899999999999986 26.07499999999999 39.11249999999999 0 0 0
1173 1 13.037499999999987 24.212499999999988 42.83749999999999 0 0 0
1174 1 13.037499999999987 26.07499999999999 44.69999999999999 0 0 0
1175 2 14.899999999999986 24.212499999999988 44.69999999999999 0 0 0
1176 2 14.899999999999986 26.07499999999999 42.83749999999999 0 0 0
1177 2 13.037499999999987 24.212499999999988 46.56249999999999 0 0 0
1180 2 14.899999999999986 26.07499999999999 46.56249999999999 0 0 0
1208 2 14.899999999999986 27.93749999999999 18.62499999999999 0 0 0
1209 1 14.899999999999986 29.79999999999999 16.76249999999999 0 0 0
1210 2 13.037499999999987 27.93749999999999 20.48749999999999 0 0 0
1211 2 13.037499999999987 29.79999999999999 22.34999999999999 0 0 0
1212 2 14.899999999999986 27.93749999999999 22.34999999999999 0 0 0
1213 1 14.899999999999986 29.79999999999999 20.48749999999999 0 0 0
1214 1 13.037499999999987 27.93749999999999 24.212499999999988 0 0 0
1215 2 13.037499999999987 29.79999999999999 26.07499999999999 0 0 0
1216 2 14.899999999999986 27.93749999999999 26.07499999999999 0 0 0
1217 2 14.899999999999986 29.79999999999999 24.212499999999988 0 0 0
1218 1 13.037499999999987 27.93749999999999 27.93749999999999 0 0 0
1219 1 13.037499999999987 29.79999999999999 29.79999999999999 0 0 0
1220 1 14.899999999999986 27.93749999999999 29.79999999999999 0 0 0
1221 2 14.899999999999986 29.79999999999999 27.93749999999999 0 0 0
1222 2 13.037499999999987 27.93749999999999 31.662499999999984 0 0 0
1223 2 13.037499999999987 29.79999999999999 33.524999999999984 0 0 0
1224 2 14.899999999999986 27.93749999999999 33.524999999999984 0 0 0
1225 2 14.899999999999986 29.79999999999999 31.662499999999984 0 0 0
1226 2 13.037499999999987 27.93749999999999 35.38749999999999 0 0 0
1227 2 13.037499999999987 29.79999999999999 37.249999999999986 0 0 0
1228 2 14.899999999999986 27.93749999999999 37.249999999999986 0 0 0
1229 2 14.899999999999986 29.79999999999999 35.38749999999999 0 0 0
1230 2 13.037499999999987 27.93749999999999 39.11249999999999 0 0 0
1231 1 13.037499999999987 29.79999999999999 40.97499999999999 0 0 0
1232 2 14.899999999999986 27.93749999999999 40.97499999999999 0 0 0
1233 1 14.899999999999986 29.79999999999999 39.11249999999999 0 0 0
1234 2 13.037499999999987 27.93749999999999 42.83749999999999 0 0 0
1235 1 13.037499999999987 29.79999999999999 44.69999999999999 0 0 0
1236 1 14.899999999999986 27.93749999999999 44.69999999999999 0 0 0
1237 2 14.899999999999986 29.79999999999999 42.83749999999999 0 0 0
1238 1 13.037499999999987 27.93749999999999 46.56249999999999 0 0 0
1241 1 14.899999999999986 29.79999999999999 46.56249999999999 0 0 0
1270 2 14.899999999999986 31.662499999999984 14.899999999999986 0 0 0
1271 2 13.037499999999987 33.524999999999984 18.62499999999999 0 0 0
1272 1 14.899999999999986 31.662499999999984 18.62499999999999 0 0 0
1273 1 14.899999999999986 33.524999999999984 16.76249999999999 0 0 0
1274 1 13.037499999999987 31.662499999999984 20.48749999999999 0 0 0
1275 1 13.037499999999987 33.524999999999984 22.34999999999999 0 0 0
1276 2 14.899999999999986 31.662499999999984 22.34999999999999 0 0 0
1277 2 14.899999999999986 33.524999999999984 20.48749999999999 0 0 0
1278 2 13.037499999999987 31.662499999999984 24.212499999999988 0 0 0
1279 2 13.037499999999987 33.524999999999984 26.07499999999999 0 0 0
1280 2 14.899999999999986 31.662499999999984 26.07499999999999 0 0 0
1281 1 14.899999999999986 33.524999999999984 24.212499999999988 0 0 0
1282 2 13.037499999999987 31.662499999999984 27.93749999999999 0 0 0
1283 2 13.037499999999987 33.524999999999984 29.79999999999999 0 0 0
1284 1 14.899999999999986 31.662499999999984 29.79999999999999 0 0 0
1285 2 14.899999999999986 33.524999999999984 27.93749999999999 0 0 0
1286 2 13.037499999999987 31.662499999999984 31.662499999999984 0 0 0
1287 2 13.037499999999987 33.524999999999984 33.524999999999984 0 0 0
1288 2 14.899999999999986 31.662499999999984 33.524999999999984 0 0 0
1289 1 14.899999999999986 33.524999999999984 31.662499999999984 0 0 0
1290 1 13.037499999999987 31.662499999999984 35.38749999999999 0 0 0
1291 2 13.037499999999987 33.524999999999984 37.249999999999986 0 0 0
1292 1 14.899999999999986 31.662499999999984 37.249999999999986 0 0 0
1293 1 14.899999999999986 33.524999999999984 35.38749999999999 0 0 0
1294 2 13.037499999999987 31.662499999999984 39.11249999999999 0 0 0
1295 2 13.037499999999987 33.524999999999984 40.97499999999999 0 0 0
1296 2 14.899999999999986 31.662499999999984 40.97499999999999 0 0 0
1297 1 14.899999999999986 33.524999999999984 39.11249999999999 0 0 0
1298 1 13.037499999999987 31.662499999999984 42.83749999999999 0 0 0