model_files/PdNi/PdNi_30000/PdNi_521/PdNi_521_fcc_30329_temp.data (written by ASE) 

30329 	 atoms 
2  atom types
0.0                      95  xlo xhi
0.0                      95  ylo yhi
0.0                      95  zlo zhi


Atoms 

     1   1      94.999999999999986      44.699999999999989      46.562499999999993
     2   1      94.999999999999986      46.562499999999993      44.699999999999989
     3   1      94.999999999999986      46.562499999999993       48.42499999999999
     4   1      94.999999999999986       48.42499999999999      46.562499999999993
     5   1      3.7249999999999877      35.387499999999989      44.699999999999989
     6   1      3.7249999999999877      37.249999999999986      42.837499999999991
     7   1      3.7249999999999877      35.387499999999989       48.42499999999999
     8   1      3.7249999999999877      37.249999999999986      46.562499999999993
     9   1      3.7249999999999877      37.249999999999986      50.287499999999987
    10   1      3.7249999999999877       39.11249999999999      40.974999999999987
    11   1      3.7249999999999877      40.974999999999987       39.11249999999999
    12   1      1.8624999999999901      40.974999999999987      44.699999999999989
    13   1      3.7249999999999877       39.11249999999999      44.699999999999989
    14   1      3.7249999999999877      40.974999999999987      42.837499999999991
    15   1      1.8624999999999901       39.11249999999999      46.562499999999993
    16   1      1.8624999999999901      40.974999999999987       48.42499999999999
    17   1      3.7249999999999877       39.11249999999999       48.42499999999999
    18   1      3.7249999999999877      40.974999999999987      46.562499999999993
    19   1      3.7249999999999877       39.11249999999999      52.149999999999977
    20   1      3.7249999999999877      40.974999999999987      50.287499999999987
    21   1      3.7249999999999877      40.974999999999987      54.012499999999982
    22   1      3.7249999999999877      42.837499999999991      37.249999999999986
    23   1      3.7249999999999877      44.699999999999989      35.387499999999989
    24   1      1.8624999999999901      44.699999999999989      40.974999999999987
    25   1      3.7249999999999877      42.837499999999991      40.974999999999987
    26   1      3.7249999999999877      44.699999999999989       39.11249999999999
    27   1      1.8624999999999901      42.837499999999991      42.837499999999991
    28   1      1.8624999999999901      44.699999999999989      44.699999999999989
    29   1      3.7249999999999877      42.837499999999991      44.699999999999989
    30   1      3.7249999999999877      44.699999999999989      42.837499999999991
    31   1      1.8624999999999901      42.837499999999991      46.562499999999993
    32   1      1.8624999999999901      44.699999999999989       48.42499999999999
    33   1      3.7249999999999877      42.837499999999991       48.42499999999999
    34   1      3.7249999999999877      44.699999999999989      46.562499999999993
    35   1      1.8624999999999901      42.837499999999991      50.287499999999987
    36   1      1.8624999999999901      44.699999999999989      52.149999999999977
    37   1      3.7249999999999877      42.837499999999991      52.149999999999977
    38   1      3.7249999999999877      44.699999999999989      50.287499999999987
    39   1      3.7249999999999877      42.837499999999991      55.874999999999986
    40   1      3.7249999999999877      44.699999999999989      54.012499999999982
    41   1      3.7249999999999877      44.699999999999989      57.737499999999983
    42   1      3.7249999999999877      46.562499999999993      37.249999999999986
    43   1      3.7249999999999877       48.42499999999999      35.387499999999989
    44   1      1.8624999999999901      46.562499999999993       39.11249999999999
    45   1      1.8624999999999901       48.42499999999999      40.974999999999987
    46   1      3.7249999999999877      46.562499999999993      40.974999999999987
    47   1      3.7249999999999877       48.42499999999999       39.11249999999999
    48   1      1.8624999999999901      46.562499999999993      42.837499999999991
    49   1      1.8624999999999901       48.42499999999999      44.699999999999989
    50   1      3.7249999999999877      46.562499999999993      44.699999999999989
    51   1      3.7249999999999877       48.42499999999999      42.837499999999991
    52   1      1.8624999999999901      46.562499999999993      46.562499999999993
    53   1      1.8624999999999901       48.42499999999999       48.42499999999999
    54   1      3.7249999999999877      46.562499999999993       48.42499999999999
    55   1      3.7249999999999877       48.42499999999999      46.562499999999993
    56   1      1.8624999999999901      46.562499999999993      50.287499999999987
    57   1      1.8624999999999901       48.42499999999999      52.149999999999977
    58   1      3.7249999999999877      46.562499999999993      52.149999999999977
    59   1      3.7249999999999877       48.42499999999999      50.287499999999987
    60   1      1.8624999999999901      46.562499999999993      54.012499999999982
    61   1      3.7249999999999877      46.562499999999993      55.874999999999986
    62   1      3.7249999999999877       48.42499999999999      54.012499999999982
    63   1      3.7249999999999877       48.42499999999999      57.737499999999983
    64   1      3.7249999999999877      50.287499999999987      37.249999999999986
    65   1      3.7249999999999877      50.287499999999987      40.974999999999987
    66   1      3.7249999999999877      52.149999999999977       39.11249999999999
    67   1      1.8624999999999901      50.287499999999987      42.837499999999991
    68   1      1.8624999999999901      52.149999999999977      44.699999999999989
    69   1      3.7249999999999877      50.287499999999987      44.699999999999989
    70   1      3.7249999999999877      52.149999999999977      42.837499999999991
    71   1      1.8624999999999901      50.287499999999987      46.562499999999993
    72   1      1.8624999999999901      52.149999999999977       48.42499999999999
    73   1      3.7249999999999877      50.287499999999987       48.42499999999999
    74   1      3.7249999999999877      52.149999999999977      46.562499999999993
    75   1      1.8624999999999901      50.287499999999987      50.287499999999987
    76   1      3.7249999999999877      50.287499999999987      52.149999999999977
    77   1      3.7249999999999877      52.149999999999977      50.287499999999987
    78   1      3.7249999999999877      50.287499999999987      55.874999999999986
    79   1      3.7249999999999877      52.149999999999977      54.012499999999982
    80   1      3.7249999999999877      54.012499999999982      40.974999999999987
    81   1      3.7249999999999877      54.012499999999982      44.699999999999989
    82   1      3.7249999999999877      55.874999999999986      42.837499999999991
    83   1      1.8624999999999901      54.012499999999982      46.562499999999993
    84   1      3.7249999999999877      54.012499999999982       48.42499999999999
    85   1      3.7249999999999877      55.874999999999986      46.562499999999993
    86   1      3.7249999999999877      54.012499999999982      52.149999999999977
    87   1      3.7249999999999877      55.874999999999986      50.287499999999987
    88   1      3.7249999999999877      57.737499999999983      44.699999999999989
    89   1      3.7249999999999877      57.737499999999983       48.42499999999999
    90   1      7.4499999999999877      26.074999999999989      46.562499999999993
    91   1      7.4499999999999877      27.937499999999989      40.974999999999987
    92   1      7.4499999999999877       29.79999999999999       39.11249999999999
    93   1      7.4499999999999877      27.937499999999989      44.699999999999989
    94   1      7.4499999999999877       29.79999999999999      42.837499999999991
    95   1      7.4499999999999877      27.937499999999989       48.42499999999999
    96   1      7.4499999999999877       29.79999999999999      46.562499999999993
    97   1      7.4499999999999877      27.937499999999989      52.149999999999977
    98   1      7.4499999999999877       29.79999999999999      50.287499999999987
    99   1      7.4499999999999877       29.79999999999999      54.012499999999982
   100   1      7.4499999999999877      31.662499999999984      33.524999999999984
   101   1      7.4499999999999877      33.524999999999984      31.662499999999984
   102   1      7.4499999999999877      31.662499999999984      37.249999999999986
   103   1      7.4499999999999877      33.524999999999984      35.387499999999989
   104   1      5.5874999999999915      33.524999999999984      40.974999999999987
   105   1      7.4499999999999877      31.662499999999984      40.974999999999987
   106   1      7.4499999999999877      33.524999999999984       39.11249999999999
   107   1      5.5874999999999915      31.662499999999984      42.837499999999991
   108   1      5.5874999999999915      33.524999999999984      44.699999999999989
   109   1      7.4499999999999877      31.662499999999984      44.699999999999989
   110   1      7.4499999999999877      33.524999999999984      42.837499999999991
   111   1      5.5874999999999915      31.662499999999984      46.562499999999993
   112   1      5.5874999999999915      33.524999999999984       48.42499999999999
   113   1      7.4499999999999877      31.662499999999984       48.42499999999999
   114   1      7.4499999999999877      33.524999999999984      46.562499999999993
   115   1      5.5874999999999915      31.662499999999984      50.287499999999987
   116   1      5.5874999999999915      33.524999999999984      52.149999999999977
   117   1      7.4499999999999877      31.662499999999984      52.149999999999977
   118   1      7.4499999999999877      33.524999999999984      50.287499999999987
   119   1      7.4499999999999877      31.662499999999984      55.874999999999986
   120   1      7.4499999999999877      33.524999999999984      54.012499999999982
   121   1      7.4499999999999877      31.662499999999984      59.599999999999987
   122   1      7.4499999999999877      33.524999999999984      57.737499999999983
   123   1      7.4499999999999877      33.524999999999984      61.462499999999991
   124   1      7.4499999999999877      35.387499999999989      33.524999999999984
   125   1      7.4499999999999877      37.249999999999986      31.662499999999984
   126   1      5.5874999999999915      35.387499999999989      35.387499999999989
   127   1      5.5874999999999915      37.249999999999986      37.249999999999986
   128   1      7.4499999999999877      35.387499999999989      37.249999999999986
   129   1      7.4499999999999877      37.249999999999986      35.387499999999989
   130   1      5.5874999999999915      35.387499999999989       39.11249999999999
   131   1      5.5874999999999915      37.249999999999986      40.974999999999987
   132   1      7.4499999999999877      35.387499999999989      40.974999999999987
   133   1      7.4499999999999877      37.249999999999986       39.11249999999999
   134   1      5.5874999999999915      35.387499999999989      42.837499999999991
   135   1      5.5874999999999915      37.249999999999986      44.699999999999989
   136   1      7.4499999999999877      35.387499999999989      44.699999999999989
   137   1      7.4499999999999877      37.249999999999986      42.837499999999991
   138   1      5.5874999999999915      35.387499999999989      46.562499999999993
   139   1      5.5874999999999915      37.249999999999986       48.42499999999999
   140   1      7.4499999999999877      35.387499999999989       48.42499999999999
   141   1      7.4499999999999877      37.249999999999986      46.562499999999993
   142   1      5.5874999999999915      35.387499999999989      50.287499999999987
   143   1      5.5874999999999915      37.249999999999986      52.149999999999977
   144   1      7.4499999999999877      35.387499999999989      52.149999999999977
   145   1      7.4499999999999877      37.249999999999986      50.287499999999987
   146   1      5.5874999999999915      35.387499999999989      54.012499999999982
   147   1      5.5874999999999915      37.249999999999986      55.874999999999986
   148   1      7.4499999999999877      35.387499999999989      55.874999999999986
   149   1      7.4499999999999877      37.249999999999986      54.012499999999982
   150   1      5.5874999999999915      35.387499999999989      57.737499999999983
   151   1      7.4499999999999877      35.387499999999989      59.599999999999987
   152   1      7.4499999999999877      37.249999999999986      57.737499999999983
   153   1      7.4499999999999877      37.249999999999986      61.462499999999991
   154   1      7.4499999999999877       39.11249999999999       29.79999999999999
   155   1      7.4499999999999877      40.974999999999987      27.937499999999989
   156   1      5.5874999999999915      40.974999999999987      33.524999999999984
   157   1      7.4499999999999877       39.11249999999999      33.524999999999984
   158   1      7.4499999999999877      40.974999999999987      31.662499999999984
   159   1      5.5874999999999915       39.11249999999999      35.387499999999989
   160   1      5.5874999999999915      40.974999999999987      37.249999999999986
   161   1      7.4499999999999877       39.11249999999999      37.249999999999986
   162   1      7.4499999999999877      40.974999999999987      35.387499999999989
   163   1      5.5874999999999915       39.11249999999999       39.11249999999999
   164   1      5.5874999999999915      40.974999999999987      40.974999999999987
   165   1      7.4499999999999877       39.11249999999999      40.974999999999987
   166   1      7.4499999999999877      40.974999999999987       39.11249999999999
   167   1      5.5874999999999915       39.11249999999999      42.837499999999991
   168   1      5.5874999999999915      40.974999999999987      44.699999999999989
   169   1      7.4499999999999877       39.11249999999999      44.699999999999989
   170   1      7.4499999999999877      40.974999999999987      42.837499999999991
   171   1      5.5874999999999915       39.11249999999999      46.562499999999993
   172   1      5.5874999999999915      40.974999999999987       48.42499999999999
   173   1      7.4499999999999877       39.11249999999999       48.42499999999999
   174   1      7.4499999999999877      40.974999999999987      46.562499999999993
   175   1      5.5874999999999915       39.11249999999999      50.287499999999987
   176   1      5.5874999999999915      40.974999999999987      52.149999999999977
   177   1      7.4499999999999877       39.11249999999999      52.149999999999977
   178   1      7.4499999999999877      40.974999999999987      50.287499999999987
   179   1      5.5874999999999915       39.11249999999999      54.012499999999982
   180   1      5.5874999999999915      40.974999999999987      55.874999999999986
   181   1      7.4499999999999877       39.11249999999999      55.874999999999986
   182   1      7.4499999999999877      40.974999999999987      54.012499999999982
   183   1      5.5874999999999915       39.11249999999999      57.737499999999983
   184   1      5.5874999999999915      40.974999999999987      59.599999999999987
   185   1      7.4499999999999877       39.11249999999999      59.599999999999987
   186   1      7.4499999999999877      40.974999999999987      57.737499999999983
   187   1      7.4499999999999877       39.11249999999999      63.324999999999989
   188   1      7.4499999999999877      40.974999999999987      61.462499999999991
   189   1      7.4499999999999877      40.974999999999987      65.187499999999986
   190   1      7.4499999999999877      42.837499999999991       29.79999999999999
   191   1      7.4499999999999877      44.699999999999989      27.937499999999989
   192   1      5.5874999999999915      42.837499999999991      31.662499999999984
   193   1      5.5874999999999915      44.699999999999989      33.524999999999984
   194   1      7.4499999999999877      42.837499999999991      33.524999999999984
   195   1      7.4499999999999877      44.699999999999989      31.662499999999984
   196   1      5.5874999999999915      42.837499999999991      35.387499999999989
   197   1      5.5874999999999915      44.699999999999989      37.249999999999986
   198   1      7.4499999999999877      42.837499999999991      37.249999999999986
   199   1      7.4499999999999877      44.699999999999989      35.387499999999989
   200   1      5.5874999999999915      42.837499999999991       39.11249999999999
   201   1      5.5874999999999915      44.699999999999989      40.974999999999987
   202   1      7.4499999999999877      42.837499999999991      40.974999999999987
   203   1      7.4499999999999877      44.699999999999989       39.11249999999999
   204   1      5.5874999999999915      42.837499999999991      42.837499999999991
   205   1      5.5874999999999915      44.699999999999989      44.699999999999989
   206   1      7.4499999999999877      42.837499999999991      44.699999999999989
   207   1      7.4499999999999877      44.699999999999989      42.837499999999991
   208   1      5.5874999999999915      42.837499999999991      46.562499999999993
   209   1      5.5874999999999915      44.699999999999989       48.42499999999999
   210   1      7.4499999999999877      42.837499999999991       48.42499999999999
   211   1      7.4499999999999877      44.699999999999989      46.562499999999993
   212   1      5.5874999999999915      42.837499999999991      50.287499999999987
   213   1      5.5874999999999915      44.699999999999989      52.149999999999977
   214   1      7.4499999999999877      42.837499999999991      52.149999999999977
   215   1      7.4499999999999877      44.699999999999989      50.287499999999987
   216   1      5.5874999999999915      42.837499999999991      54.012499999999982
   217   1      5.5874999999999915      44.699999999999989      55.874999999999986
   218   1      7.4499999999999877      42.837499999999991      55.874999999999986
   219   1      7.4499999999999877      44.699999999999989      54.012499999999982
   220   1      5.5874999999999915      42.837499999999991      57.737499999999983
   221   1      5.5874999999999915      44.699999999999989      59.599999999999987
   222   1      7.4499999999999877      42.837499999999991      59.599999999999987
   223   1      7.4499999999999877      44.699999999999989      57.737499999999983
   224   1      5.5874999999999915      42.837499999999991      61.462499999999991
   225   1      7.4499999999999877      42.837499999999991      63.324999999999989
   226   1      7.4499999999999877      44.699999999999989      61.462499999999991
   227   1      7.4499999999999877      44.699999999999989      65.187499999999986
   228   1      7.4499999999999877      46.562499999999993      26.074999999999989
   229   1      7.4499999999999877      46.562499999999993       29.79999999999999
   230   1      7.4499999999999877       48.42499999999999      27.937499999999989
   231   1      5.5874999999999915      46.562499999999993      31.662499999999984
   232   1      5.5874999999999915       48.42499999999999      33.524999999999984
   233   1      7.4499999999999877      46.562499999999993      33.524999999999984
   234   1      7.4499999999999877       48.42499999999999      31.662499999999984
   235   1      5.5874999999999915      46.562499999999993      35.387499999999989
   236   1      5.5874999999999915       48.42499999999999      37.249999999999986
   237   1      7.4499999999999877      46.562499999999993      37.249999999999986
   238   1      7.4499999999999877       48.42499999999999      35.387499999999989
   239   1      5.5874999999999915      46.562499999999993       39.11249999999999
   240   1      5.5874999999999915       48.42499999999999      40.974999999999987
   241   1      7.4499999999999877      46.562499999999993      40.974999999999987
   242   1      7.4499999999999877       48.42499999999999       39.11249999999999
   243   1      5.5874999999999915      46.562499999999993      42.837499999999991
   244   1      5.5874999999999915       48.42499999999999      44.699999999999989
   245   1      7.4499999999999877      46.562499999999993      44.699999999999989
   246   1      7.4499999999999877       48.42499999999999      42.837499999999991
   247   1      5.5874999999999915      46.562499999999993      46.562499999999993
   248   1      5.5874999999999915       48.42499999999999       48.42499999999999
   249   1      7.4499999999999877      46.562499999999993       48.42499999999999
   250   1      7.4499999999999877       48.42499999999999      46.562499999999993
   251   1      5.5874999999999915      46.562499999999993      50.287499999999987
   252   1      5.5874999999999915       48.42499999999999      52.149999999999977
   253   1      7.4499999999999877      46.562499999999993      52.149999999999977
   254   1      7.4499999999999877       48.42499999999999      50.287499999999987
   255   1      5.5874999999999915      46.562499999999993      54.012499999999982
   256   1      5.5874999999999915       48.42499999999999      55.874999999999986
   257   1      7.4499999999999877      46.562499999999993      55.874999999999986
   258   1      7.4499999999999877       48.42499999999999      54.012499999999982
   259   1      5.5874999999999915      46.562499999999993      57.737499999999983
   260   1      5.5874999999999915       48.42499999999999      59.599999999999987
   261   1      7.4499999999999877      46.562499999999993      59.599999999999987
   262   1      7.4499999999999877       48.42499999999999      57.737499999999983
   263   1      5.5874999999999915      46.562499999999993      61.462499999999991
   264   1      7.4499999999999877      46.562499999999993      63.324999999999989
   265   1      7.4499999999999877       48.42499999999999      61.462499999999991
   266   1      7.4499999999999877      46.562499999999993      67.049999999999983
   267   1      7.4499999999999877       48.42499999999999      65.187499999999986
   268   1      7.4499999999999877      50.287499999999987       29.79999999999999
   269   1      7.4499999999999877      52.149999999999977      27.937499999999989
   270   1      5.5874999999999915      50.287499999999987      31.662499999999984
   271   1      5.5874999999999915      52.149999999999977      33.524999999999984
   272   1      7.4499999999999877      50.287499999999987      33.524999999999984
   273   1      7.4499999999999877      52.149999999999977      31.662499999999984
   274   1      5.5874999999999915      50.287499999999987      35.387499999999989
   275   1      5.5874999999999915      52.149999999999977      37.249999999999986
   276   1      7.4499999999999877      50.287499999999987      37.249999999999986
   277   1      7.4499999999999877      52.149999999999977      35.387499999999989
   278   1      5.5874999999999915      50.287499999999987       39.11249999999999
   279   1      5.5874999999999915      52.149999999999977      40.974999999999987
   280   1      7.4499999999999877      50.287499999999987      40.974999999999987
   281   1      7.4499999999999877      52.149999999999977       39.11249999999999
   282   1      5.5874999999999915      50.287499999999987      42.837499999999991
   283   1      5.5874999999999915      52.149999999999977      44.699999999999989
   284   1      7.4499999999999877      50.287499999999987      44.699999999999989
   285   1      7.4499999999999877      52.149999999999977      42.837499999999991
   286   1      5.5874999999999915      50.287499999999987      46.562499999999993
   287   1      5.5874999999999915      52.149999999999977       48.42499999999999
   288   1      7.4499999999999877      50.287499999999987       48.42499999999999
   289   1      7.4499999999999877      52.149999999999977      46.562499999999993
   290   1      5.5874999999999915      50.287499999999987      50.287499999999987
   291   1      5.5874999999999915      52.149999999999977      52.149999999999977
   292   1      7.4499999999999877      50.287499999999987      52.149999999999977
   293   1      7.4499999999999877      52.149999999999977      50.287499999999987
   294   1      5.5874999999999915      50.287499999999987      54.012499999999982
   295   1      5.5874999999999915      52.149999999999977      55.874999999999986
   296   1      7.4499999999999877      50.287499999999987      55.874999999999986
   297   1      7.4499999999999877      52.149999999999977      54.012499999999982
   298   1      5.5874999999999915      50.287499999999987      57.737499999999983
   299   1      5.5874999999999915      52.149999999999977      59.599999999999987
   300   1      7.4499999999999877      50.287499999999987      59.599999999999987
   301   1      7.4499999999999877      52.149999999999977      57.737499999999983
   302   1      5.5874999999999915      50.287499999999987      61.462499999999991
   303   1      7.4499999999999877      50.287499999999987      63.324999999999989
   304   1      7.4499999999999877      52.149999999999977      61.462499999999991
   305   1      7.4499999999999877      52.149999999999977      65.187499999999986
   306   1      7.4499999999999877      54.012499999999982       29.79999999999999
   307   1      7.4499999999999877      54.012499999999982      33.524999999999984
   308   1      7.4499999999999877      55.874999999999986      31.662499999999984
   309   1      5.5874999999999915      54.012499999999982      35.387499999999989
   310   1      5.5874999999999915      55.874999999999986      37.249999999999986
   311   1      7.4499999999999877      54.012499999999982      37.249999999999986
   312   1      7.4499999999999877      55.874999999999986      35.387499999999989
   313   1      5.5874999999999915      54.012499999999982       39.11249999999999
   314   1      5.5874999999999915      55.874999999999986      40.974999999999987
   315   1      7.4499999999999877      54.012499999999982      40.974999999999987
   316   1      7.4499999999999877      55.874999999999986       39.11249999999999
   317   1      5.5874999999999915      54.012499999999982      42.837499999999991
   318   1      5.5874999999999915      55.874999999999986      44.699999999999989
   319   1      7.4499999999999877      54.012499999999982      44.699999999999989
   320   1      7.4499999999999877      55.874999999999986      42.837499999999991
   321   1      5.5874999999999915      54.012499999999982      46.562499999999993
   322   1      5.5874999999999915      55.874999999999986       48.42499999999999
   323   1      7.4499999999999877      54.012499999999982       48.42499999999999
   324   1      7.4499999999999877      55.874999999999986      46.562499999999993
   325   1      5.5874999999999915      54.012499999999982      50.287499999999987
   326   1      5.5874999999999915      55.874999999999986      52.149999999999977
   327   1      7.4499999999999877      54.012499999999982      52.149999999999977
   328   1      7.4499999999999877      55.874999999999986      50.287499999999987
   329   1      5.5874999999999915      54.012499999999982      54.012499999999982
   330   1      5.5874999999999915      55.874999999999986      55.874999999999986
   331   1      7.4499999999999877      54.012499999999982      55.874999999999986
   332   1      7.4499999999999877      55.874999999999986      54.012499999999982
   333   1      5.5874999999999915      54.012499999999982      57.737499999999983
   334   1      7.4499999999999877      54.012499999999982      59.599999999999987
   335   1      7.4499999999999877      55.874999999999986      57.737499999999983
   336   1      7.4499999999999877      54.012499999999982      63.324999999999989
   337   1      7.4499999999999877      55.874999999999986      61.462499999999991
   338   1      7.4499999999999877      57.737499999999983      33.524999999999984
   339   1      7.4499999999999877      59.599999999999987      31.662499999999984
   340   1      5.5874999999999915      57.737499999999983      35.387499999999989
   341   1      7.4499999999999877      57.737499999999983      37.249999999999986
   342   1      7.4499999999999877      59.599999999999987      35.387499999999989
   343   1      5.5874999999999915      57.737499999999983       39.11249999999999
   344   1      5.5874999999999915      59.599999999999987      40.974999999999987
   345   1      7.4499999999999877      57.737499999999983      40.974999999999987
   346   1      7.4499999999999877      59.599999999999987       39.11249999999999
   347   1      5.5874999999999915      57.737499999999983      42.837499999999991
   348   1      5.5874999999999915      59.599999999999987      44.699999999999989
   349   1      7.4499999999999877      57.737499999999983      44.699999999999989
   350   1      7.4499999999999877      59.599999999999987      42.837499999999991
   351   1      5.5874999999999915      57.737499999999983      46.562499999999993
   352   1      5.5874999999999915      59.599999999999987       48.42499999999999
   353   1      7.4499999999999877      57.737499999999983       48.42499999999999
   354   1      7.4499999999999877      59.599999999999987      46.562499999999993
   355   1      5.5874999999999915      57.737499999999983      50.287499999999987
   356   1      5.5874999999999915      59.599999999999987      52.149999999999977
   357   1      7.4499999999999877      57.737499999999983      52.149999999999977
   358   1      7.4499999999999877      59.599999999999987      50.287499999999987