LAMMPS data file via write_data, version 30 Nov 2020, timestep = 0

29685 atoms
5 atom types

0 101 xlo xhi
0 101 ylo yhi
0 101 zlo zhi

Masses

1 58.7
2 55.8
3 52
4 59
5 63

Atoms # atomic

1 4 1.7850000000000037 44.625 49.980000000000004 0 0 0
2 1 7.105427357601002e-15 48.195 48.195 0 0 0
3 3 1.7850000000000037 46.410000000000004 48.195 0 0 0
4 5 1.7850000000000037 48.195 46.410000000000004 0 0 0
5 3 7.105427357601002e-15 46.410000000000004 49.980000000000004 0 0 0
8 1 1.7850000000000037 48.195 49.980000000000004 0 0 0
10 5 1.7850000000000037 49.980000000000004 44.625 0 0 0
11 2 7.105427357601002e-15 49.980000000000004 46.410000000000004 0 0 0
13 5 1.7850000000000037 49.980000000000004 48.195 0 0 0
15 1 7.105427357601002e-15 49.980000000000004 49.980000000000004 0 0 0
26 2 5.355000000000004 41.055 46.410000000000004 0 0 0
27 2 5.355000000000004 41.055 49.980000000000004 0 0 0
29 2 3.5700000000000074 44.625 44.625 0 0 0
30 5 5.355000000000004 42.84 44.625 0 0 0
31 1 5.355000000000004 44.625 42.84 0 0 0
32 1 3.5700000000000074 42.84 46.410000000000004 0 0 0
33 4 3.5700000000000074 44.625 48.195 0 0 0
34 5 5.355000000000004 42.84 48.195 0 0 0
35 1 5.355000000000004 44.625 46.410000000000004 0 0 0
36 4 3.5700000000000074 42.84 49.980000000000004 0 0 0
39 3 5.355000000000004 44.625 49.980000000000004 0 0 0
45 4 5.355000000000004 46.410000000000004 41.055 0 0 0
46 1 3.5700000000000074 46.410000000000004 42.84 0 0 0
47 5 3.5700000000000074 48.195 44.625 0 0 0
48 3 5.355000000000004 46.410000000000004 44.625 0 0 0
49 4 5.355000000000004 48.195 42.84 0 0 0
50 3 3.5700000000000074 46.410000000000004 46.410000000000004 0 0 0
51 2 3.5700000000000074 48.195 48.195 0 0 0
52 1 5.355000000000004 46.410000000000004 48.195 0 0 0
53 2 5.355000000000004 48.195 46.410000000000004 0 0 0
54 4 3.5700000000000074 46.410000000000004 49.980000000000004 0 0 0
57 3 5.355000000000004 48.195 49.980000000000004 0 0 0
65 2 5.355000000000004 49.980000000000004 41.055 0 0 0
66 3 3.5700000000000074 49.980000000000004 42.84 0 0 0
68 3 5.355000000000004 49.980000000000004 44.625 0 0 0
70 5 3.5700000000000074 49.980000000000004 46.410000000000004 0 0 0
72 3 5.355000000000004 49.980000000000004 48.195 0 0 0
74 4 3.5700000000000074 49.980000000000004 49.980000000000004 0 0 0
115 5 8.925000000000004 37.485 42.84 0 0 0
116 2 7.140000000000008 37.485 48.195 0 0 0
117 2 8.925000000000004 35.7 48.195 0 0 0
118 3 8.925000000000004 37.485 46.410000000000004 0 0 0
121 2 8.925000000000004 37.485 49.980000000000004 0 0 0
124 5 7.140000000000008 41.055 41.055 0 0 0
125 5 8.925000000000004 39.27 41.055 0 0 0
126 1 8.925000000000004 41.055 39.27 0 0 0
127 5 7.140000000000008 39.27 42.84 0 0 0
128 1 7.140000000000008 41.055 44.625 0 0 0
129 4 8.925000000000004 39.27 44.625 0 0 0
130 2 8.925000000000004 41.055 42.84 0 0 0
131 1 7.140000000000008 39.27 46.410000000000004 0 0 0
132 2 7.140000000000008 41.055 48.195 0 0 0
133 1 8.925000000000004 39.27 48.195 0 0 0
134 4 8.925000000000004 41.055 46.410000000000004 0 0 0
135 1 7.140000000000008 39.27 49.980000000000004 0 0 0
138 2 8.925000000000004 41.055 49.980000000000004 0 0 0
148 2 8.925000000000004 42.84 37.485 0 0 0
149 1 7.140000000000008 42.84 39.27 0 0 0
150 1 7.140000000000008 44.625 41.055 0 0 0
151 2 8.925000000000004 42.84 41.055 0 0 0
152 2 8.925000000000004 44.625 39.27 0 0 0
153 2 7.140000000000008 42.84 42.84 0 0 0
154 3 7.140000000000008 44.625 44.625 0 0 0
155 1 8.925000000000004 42.84 44.625 0 0 0
156 3 8.925000000000004 44.625 42.84 0 0 0
157 1 7.140000000000008 42.84 46.410000000000004 0 0 0
158 3 7.140000000000008 44.625 48.195 0 0 0
159 2 8.925000000000004 42.84 48.195 0 0 0
160 2 8.925000000000004 44.625 46.410000000000004 0 0 0
161 3 7.140000000000008 42.84 49.980000000000004 0 0 0
164 1 8.925000000000004 44.625 49.980000000000004 0 0 0
176 2 7.140000000000008 48.195 37.485 0 0 0
177 4 8.925000000000004 46.410000000000004 37.485 0 0 0
178 2 8.925000000000004 48.195 35.7 0 0 0
179 1 7.140000000000008 46.410000000000004 39.27 0 0 0
180 3 7.140000000000008 48.195 41.055 0 0 0
181 2 8.925000000000004 46.410000000000004 41.055 0 0 0
182 1 8.925000000000004 48.195 39.27 0 0 0
183 1 7.140000000000008 46.410000000000004 42.84 0 0 0
184 2 7.140000000000008 48.195 44.625 0 0 0
185 1 8.925000000000004 46.410000000000004 44.625 0 0 0
186 5 8.925000000000004 48.195 42.84 0 0 0
187 5 7.140000000000008 46.410000000000004 46.410000000000004 0 0 0
188 4 7.140000000000008 48.195 48.195 0 0 0
189 2 8.925000000000004 46.410000000000004 48.195 0 0 0
190 2 8.925000000000004 48.195 46.410000000000004 0 0 0
191 5 7.140000000000008 46.410000000000004 49.980000000000004 0 0 0
194 5 8.925000000000004 48.195 49.980000000000004 0 0 0
209 4 8.925000000000004 49.980000000000004 37.485 0 0 0
211 3 7.140000000000008 49.980000000000004 39.27 0 0 0
213 4 8.925000000000004 49.980000000000004 41.055 0 0 0
215 3 7.140000000000008 49.980000000000004 42.84 0 0 0
217 4 8.925000000000004 49.980000000000004 44.625 0 0 0
219 1 7.140000000000008 49.980000000000004 46.410000000000004 0 0 0
221 1 8.925000000000004 49.980000000000004 48.195 0 0 0
223 3 7.140000000000008 49.980000000000004 49.980000000000004 0 0 0
316 2 12.495000000000005 30.345 49.980000000000004 0 0 0
317 4 12.495000000000005 33.915 39.27 0 0 0
318 3 10.710000000000008 33.915 44.625 0 0 0
319 4 12.495000000000005 32.13 44.625 0 0 0
320 1 12.495000000000005 33.915 42.84 0 0 0
321 5 10.710000000000008 33.915 48.195 0 0 0
322 2 12.495000000000005 32.13 48.195 0 0 0
323 2 12.495000000000005 33.915 46.410000000000004 0 0 0
324 2 10.710000000000008 32.13 49.980000000000004 0 0 0
327 1 12.495000000000005 33.915 49.980000000000004 0 0 0
333 5 10.710000000000008 37.485 37.485 0 0 0
334 5 12.495000000000005 35.7 37.485 0 0 0
335 2 12.495000000000005 37.485 35.7 0 0 0
336 1 10.710000000000008 35.7 39.27 0 0 0
337 1 10.710000000000008 37.485 41.055 0 0 0
338 2 12.495000000000005 35.7 41.055 0 0 0
339 5 12.495000000000005 37.485 39.27 0 0 0
340 3 10.710000000000008 35.7 42.84 0 0 0
341 1 10.710000000000008 37.485 44.625 0 0 0
342 5 12.495000000000005 35.7 44.625 0 0 0
343 1 12.495000000000005 37.485 42.84 0 0 0
344 2 10.710000000000008 35.7 46.410000000000004 0 0 0
345 2 10.710000000000008 37.485 48.195 0 0 0
346 3 12.495000000000005 35.7 48.195 0 0 0
347 5 12.495000000000005 37.485 46.410000000000004 0 0 0
348 3 10.710000000000008 35.7 49.980000000000004 0 0 0
351 3 12.495000000000005 37.485 49.980000000000004 0 0 0
365 5 12.495000000000005 39.27 33.915 0 0 0
366 2 10.710000000000008 39.27 35.7 0 0 0
367 5 10.710000000000008 41.055 37.485 0 0 0
368 1 12.495000000000005 39.27 37.485 0 0 0
369 2 12.495000000000005 41.055 35.7 0 0 0
370 2 10.710000000000008 39.27 39.27 0 0 0
371 2 10.710000000000008 41.055 41.055 0 0 0
372 5 12.495000000000005 39.27 41.055 0 0 0
373 5 12.495000000000005 41.055 39.27 0 0 0
374 2 10.710000000000008 39.27 42.84 0 0 0
375 3 10.710000000000008 41.055 44.625 0 0 0
376 3 12.495000000000005 39.27 44.625 0 0 0
377 2 12.495000000000005 41.055 42.84 0 0 0
378 5 10.710000000000008 39.27 46.410000000000004 0 0 0
379 3 10.710000000000008 41.055 48.195 0 0 0
380 3 12.495000000000005 39.27 48.195 0 0 0
381 5 12.495000000000005 41.055 46.410000000000004 0 0 0
382 3 10.710000000000008 39.27 49.980000000000004 0 0 0
385 5 12.495000000000005 41.055 49.980000000000004 0 0 0
401 4 10.710000000000008 44.625 33.915 0 0 0
402 5 12.495000000000005 42.84 33.915 0 0 0
403 3 12.495000000000005 44.625 32.13 0 0 0
404 4 10.710000000000008 42.84 35.7 0 0 0
405 1 10.710000000000008 44.625 37.485 0 0 0
406 1 12.495000000000005 42.84 37.485 0 0 0
407 2 12.495000000000005 44.625 35.7 0 0 0
408 5 10.710000000000008 42.84 39.27 0 0 0
409 5 10.710000000000008 44.625 41.055 0 0 0
410 5 12.495000000000005 42.84 41.055 0 0 0
411 4 12.495000000000005 44.625 39.27 0 0 0
412 1 10.710000000000008 42.84 42.84 0 0 0
413 4 10.710000000000008 44.625 44.625 0 0 0
414 2 12.495000000000005 42.84 44.625 0 0 0
415 1 12.495000000000005 44.625 42.84 0 0 0
416 5 10.710000000000008 42.84 46.410000000000004 0 0 0
417 2 10.710000000000008 44.625 48.195 0 0 0
418 5 12.495000000000005 42.84 48.195 0 0 0
419 3 12.495000000000005 44.625 46.410000000000004 0 0 0
420 3 10.710000000000008 42.84 49.980000000000004 0 0 0
423 2 12.495000000000005 44.625 49.980000000000004 0 0 0
441 4 10.710000000000008 48.195 33.915 0 0 0
442 5 12.495000000000005 46.410000000000004 33.915 0 0 0
443 1 12.495000000000005 48.195 32.13 0 0 0
444 3 10.710000000000008 46.410000000000004 35.7 0 0 0
445 5 10.710000000000008 48.195 37.485 0 0 0
446 5 12.495000000000005 46.410000000000004 37.485 0 0 0
447 3 12.495000000000005 48.195 35.7 0 0 0
448 1 10.710000000000008 46.410000000000004 39.27 0 0 0
449 1 10.710000000000008 48.195 41.055 0 0 0
450 3 12.495000000000005 46.410000000000004 41.055 0 0 0
451 5 12.495000000000005 48.195 39.27 0 0 0
452 3 10.710000000000008 46.410000000000004 42.84 0 0 0
453 2 10.710000000000008 48.195 44.625 0 0 0
454 3 12.495000000000005 46.410000000000004 44.625 0 0 0
455 2 12.495000000000005 48.195 42.84 0 0 0
456 3 10.710000000000008 46.410000000000004 46.410000000000004 0 0 0
457 5 10.710000000000008 48.195 48.195 0 0 0
458 3 12.495000000000005 46.410000000000004 48.195 0 0 0
459 4 12.495000000000005 48.195 46.410000000000004 0 0 0
460 5 10.710000000000008 46.410000000000004 49.980000000000004 0 0 0
463 3 12.495000000000005 48.195 49.980000000000004 0 0 0
481 1 12.495000000000005 49.980000000000004 30.345 0 0 0
482 1 10.710000000000008 49.980000000000004 32.13 0 0 0
484 5 12.495000000000005 49.980000000000004 33.915 0 0 0
486 4 10.710000000000008 49.980000000000004 35.7 0 0 0
488 5 12.495000000000005 49.980000000000004 37.485 0 0 0
490 1 10.710000000000008 49.980000000000004 39.27 0 0 0
492 5 12.495000000000005 49.980000000000004 41.055 0 0 0
494 1 10.710000000000008 49.980000000000004 42.84 0 0 0
496 3 12.495000000000005 49.980000000000004 44.625 0 0 0
498 4 10.710000000000008 49.980000000000004 46.410000000000004 0 0 0
500 4 12.495000000000005 49.980000000000004 48.195 0 0 0
502 3 10.710000000000008 49.980000000000004 49.980000000000004 0 0 0
669 4 16.065000000000005 26.775000000000006 46.410000000000004 0 0 0
670 5 16.065000000000005 26.775000000000006 49.980000000000004 0 0 0
672 1 16.065000000000005 30.345 35.7 0 0 0
673 5 14.280000000000001 30.345 41.055 0 0 0
674 4 16.065000000000005 28.560000000000002 41.055 0 0 0
675 4 16.065000000000005 30.345 39.27 0 0 0
676 3 14.280000000000001 30.345 44.625 0 0 0
677 3 16.065000000000005 28.560000000000002 44.625 0 0 0
678 2 16.065000000000005 30.345 42.84 0 0 0
679 3 14.280000000000001 28.560000000000002 46.410000000000004 0 0 0
680 1 14.280000000000001 30.345 48.195 0 0 0
681 5 16.065000000000005 28.560000000000002 48.195 0 0 0
682 3 16.065000000000005 30.345 46.410000000000004 0 0 0
683 1 14.280000000000001 28.560000000000002 49.980000000000004 0 0 0
686 2 16.065000000000005 30.345 49.980000000000004 0 0 0
696 3 14.280000000000001 33.915 33.915 0 0 0
697 1 16.065000000000005 32.13 33.915 0 0 0
698 1 16.065000000000005 33.915 32.13 0 0 0
699 2 14.280000000000001 32.13 35.7 0 0 0
700 4 14.280000000000001 33.915 37.485 0 0 0
701 1 16.065000000000005 32.13 37.485 0 0 0
702 3 16.065000000000005 33.915 35.7 0 0 0
703 2 14.280000000000001 32.13 39.27 0 0 0
704 5 14.280000000000001 33.915 41.055 0 0 0
705 1 16.065000000000005 32.13 41.055 0 0 0
706 1 16.065000000000005 33.915 39.27 0 0 0
707 4 14.280000000000001 32.13 42.84 0 0 0
708 5 14.280000000000001 33.915 44.625 0 0 0
709 5 16.065000000000005 32.13 44.625 0 0 0
710 1 16.065000000000005 33.915 42.84 0 0 0
711 5 14.280000000000001 32.13 46.410000000000004 0 0 0
712 5 14.280000000000001 33.915 48.195 0 0 0
713 4 16.065000000000005 32.13 48.195 0 0 0
714 5 16.065000000000005 33.915 46.410000000000004 0 0 0
715 3 14.280000000000001 32.13 49.980000000000004 0 0 0
718 1 16.065000000000005 33.915 49.980000000000004 0 0 0
736 2 16.065000000000005 35.7 30.345 0 0 0
737 3 14.280000000000001 35.7 32.13 0 0 0
738 4 14.280000000000001 37.485 33.915 0 0 0
739 2 16.065000000000005 35.7 33.915 0 0 0
740 2 16.065000000000005 37.485 32.13 0 0 0
741 1 14.280000000000001 35.7 35.7 0 0 0
742 4 14.280000000000001 37.485 37.485 0 0 0
743 1 16.065000000000005 35.7 37.485 0 0 0
744 4 16.065000000000005 37.485 35.7 0 0 0
745 2 14.280000000000001 35.7 39.27 0 0 0
746 2 14.280000000000001 37.485 41.055 0 0 0
747 5 16.065000000000005 35.7 41.055 0 0 0
748 1 16.065000000000005 37.485 39.27 0 0 0
749 2 14.280000000000001 35.7 42.84 0 0 0
750 1 14.280000000000001 37.485 44.625 0 0 0
751 5 16.065000000000005 35.7 44.625 0 0 0
752 1 16.065000000000005 37.485 42.84 0 0 0
753 3 14.280000000000001 35.7 46.410000000000004 0 0 0
754 4 14.280000000000001 37.485 48.195 0 0 0
755 1 16.065000000000005 35.7 48.195 0 0 0
756 4 16.065000000000005 37.485 46.410000000000004 0 0 0
757 1 14.280000000000001 35.7 49.980000000000004 0 0 0
760 5 16.065000000000005 37.485 49.980000000000004 0 0 0
780 4 14.280000000000001 41.055 30.345 0 0 0
781 5 16.065000000000005 39.27 30.345 0 0 0
782 4 16.065000000000005 41.055 28.560000000000002 0 0 0
783 4 14.280000000000001 39.27 32.13 0 0 0
784 3 14.280000000000001 41.055 33.915 0 0 0
785 5 16.065000000000005 39.27 33.915 0 0 0
786 2 16.065000000000005 41.055 32.13 0 0 0
787 3 14.280000000000001 39.27 35.7 0 0 0
788 2 14.280000000000001 41.055 37.485 0 0 0
789 5 16.065000000000005 39.27 37.485 0 0 0
790 2 16.065000000000005 41.055 35.7 0 0 0
791 4 14.280000000000001 39.27 39.27 0 0 0
792 2 14.280000000000001 41.055 41.055 0 0 0
793 1 16.065000000000005 39.27 41.055 0 0 0
794 3 16.065000000000005 41.055 39.27 0 0 0
795 1 14.280000000000001 39.27 42.84 0 0 0
796 3 14.280000000000001 41.055 44.625 0 0 0
797 4 16.065000000000005 39.27 44.625 0 0 0
798 3 16.065000000000005 41.055 42.84 0 0 0
799 1 14.280000000000001 39.27 46.410000000000004 0 0 0
800 1 14.280000000000001 41.055 48.195 0 0 0
801 4 16.065000000000005 39.27 48.195 0 0 0
802 4 16.065000000000005 41.055 46.410000000000004 0 0 0
803 1 14.280000000000001 39.27 49.980000000000004 0 0 0
806 4 16.065000000000005 41.055 49.980000000000004 0 0 0
828 4 14.280000000000001 44.625 30.345 0 0 0
829 1 16.065000000000005 42.84 30.345 0 0 0
830 1 16.065000000000005 44.625 28.560000000000002 0 0 0
831 3 14.280000000000001 42.84 32.13 0 0 0
832 3 14.280000000000001 44.625 33.915 0 0 0
833 4 16.065000000000005 42.84 33.915 0 0 0
834 1 16.065000000000005 44.625 32.13 0 0 0
835 4 14.280000000000001 42.84 35.7 0 0 0
836 2 14.280000000000001 44.625 37.485 0 0 0
837 1 16.065000000000005 42.84 37.485 0 0 0
838 3 16.065000000000005 44.625 35.7 0 0 0
839 5 14.280000000000001 42.84 39.27 0 0 0
840 2 14.280000000000001 44.625 41.055 0 0 0
841 1 16.065000000000005 42.84 41.055 0 0 0
842 1 16.065000000000005 44.625 39.27 0 0 0
843 2 14.280000000000001 42.84 42.84 0 0 0
844 4 14.280000000000001 44.625 44.625 0 0 0
845 4 16.065000000000005 42.84 44.625 0 0 0
846 2 16.065000000000005 44.625 42.84 0 0 0
847 3 14.280000000000001 42.84 46.410000000000004 0 0 0
848 2 14.280000000000001 44.625 48.195 0 0 0
849 5 16.065000000000005 42.84 48.195 0 0 0
850 5 16.065000000000005 44.625 46.410000000000004 0 0 0
851 3 14.280000000000001 42.84 49.980000000000004 0 0 0
854 5 16.065000000000005 44.625 49.980000000000004 0 0 0
876 4 16.065000000000005 46.410000000000004 26.775000000000006 0 0 0
877 5 14.280000000000001 46.410000000000004 28.560000000000002 0 0 0
878 1 14.280000000000001 48.195 30.345 0 0 0
879 2 16.065000000000005 46.410000000000004 30.345 0 0 0
880 5 16.065000000000005 48.195 28.560000000000002 0 0 0
881 3 14.280000000000001 46.410000000000004 32.13 0 0 0
882 2 14.280000000000001 48.195 33.915 0 0 0
883 2 16.065000000000005 46.410000000000004 33.915 0 0 0
884 3 16.065000000000005 48.195 32.13 0 0 0
885 3 14.280000000000001 46.410000000000004 35.7 0 0 0
886 2 14.280000000000001 48.195 37.485 0 0 0
887 2 16.065000000000005 46.410000000000004 37.485 0 0 0
888 4 16.065000000000005 48.195 35.7 0 0 0
889 3 14.280000000000001 46.410000000000004 39.27 0 0 0
890 3 14.280000000000001 48.195 41.055 0 0 0
891 4 16.065000000000005 46.410000000000004 41.055 0 0 0
892 2 16.065000000000005 48.195 39.27 0 0 0
893 5 14.280000000000001 46.410000000000004 42.84 0 0 0
894 2 14.280000000000001 48.195 44.625 0 0 0
895 2 16.065000000000005 46.410000000000004 44.625 0 0 0
896 1 16.065000000000005 48.195 42.84 0 0 0
897 4 14.280000000000001 46.410000000000004 46.410000000000004 0 0 0
898 4 14.280000000000001 48.195 48.195 0 0 0
899 2 16.065000000000005 46.410000000000004 48.195 0 0 0
900 3 16.065000000000005 48.195 46.410000000000004 0 0 0
901 4 14.280000000000001 46.410000000000004 49.980000000000004 0 0 0
904 1 16.065000000000005 48.195 49.980000000000004 0 0 0
928 4 16.065000000000005 49.980000000000004 26.775000000000006 0 0 0
929 4 14.280000000000001 49.980000000000004 28.560000000000002 0 0 0
931 4 16.065000000000005 49.980000000000004 30.345 0 0 0
933 2 14.280000000000001 49.980000000000004 32.13 0 0 0
935 2 16.065000000000005 49.980000000000004 33.915 0 0 0
937 4 14.280000000000001 49.980000000000004 35.7 0 0 0
939 5 16.065000000000005 49.980000000000004 37.485 0 0 0
941 2 14.280000000000001 49.980000000000004 39.27 0 0 0
943 2 16.065000000000005 49.980000000000004 41.055 0 0 0
945 4 14.280000000000001 49.980000000000004 42.84 0 0 0
947 1 16.065000000000005 49.980000000000004 44.625 0 0 0
949 3 14.280000000000001 49.980000000000004 46.410000000000004 0 0 0
951 2 16.065000000000005 49.980000000000004 48.195 0 0 0
953 4 14.280000000000001 49.980000000000004 49.980000000000004 0 0 0
1214 2 19.635000000000005 23.205000000000005 42.84 0 0 0
1215 4 17.85000000000001 23.205000000000005 48.195 0 0 0
1216 5 19.635000000000005 21.420000000000005 48.195 0 0 0
1217 4 19.635000000000005 23.205000000000005 46.410000000000004 0 0 0
1220 4 19.635000000000005 23.205000000000005 49.980000000000004 0 0 0
1223 1 19.635000000000005 26.775000000000006 32.13 0 0 0
1224 3 17.85000000000001 26.775000000000006 37.485 0 0 0
1225 2 19.635000000000005 24.990000000000006 37.485 0 0 0
1226 4 19.635000000000005 26.775000000000006 35.7 0 0 0
1227 5 17.85000000000001 26.775000000000006 41.055 0 0 0
1228 4 19.635000000000005 24.990000000000006 41.055 0 0 0
1229 1 19.635000000000005 26.775000000000006 39.27 0 0 0
1230 5 17.85000000000001 24.990000000000006 42.84 0 0 0
1231 1 17.85000000000001 26.775000000000006 44.625 0 0 0
1232 4 19.635000000000005 24.990000000000006 44.625 0 0 0
1233 5 19.635000000000005 26.775000000000006 42.84 0 0 0
1234 2 17.85000000000001 24.990000000000006 46.410000000000004 0 0 0
1235 5 17.85000000000001 26.775000000000006 48.195 0 0 0
1236 2 19.635000000000005 24.990000000000006 48.195 0 0 0
1237 5 19.635000000000005 26.775000000000006 46.410000000000004 0 0 0
1238 1 17.85000000000001 24.990000000000006 49.980000000000004 0 0 0
1241 3 19.635000000000005 26.775000000000006 49.980000000000004 0 0 0
1255 2 17.85000000000001 30.345 30.345 0 0 0
1256 1 19.635000000000005 28.560000000000002 30.345 0 0 0
1257 3 19.635000000000005 30.345 28.560000000000002 0 0 0
1258 4 17.85000000000001 28.560000000000002 32.13 0 0 0
1259 5 17.85000000000001 30.345 33.915 0 0 0
1260 4 19.635000000000005 28.560000000000002 33.915 0 0 0
1261 2 19.635000000000005 30.345 32.13 0 0 0
1262 3 17.85000000000001 28.560000000000002 35.7 0 0 0
1263 5 17.85000000000001 30.345 37.485 0 0 0
1264 2 19.635000000000005 28.560000000000002 37.485 0 0 0
1265 1 19.635000000000005 30.345 35.7 0 0 0
1266 2 17.85000000000001 28.560000000000002 39.27 0 0 0
1267 3 17.85000000000001 30.345 41.055 0 0 0
1268 1 19.635000000000005 28.560000000000002 41.055 0 0 0
1269 3 19.635000000000005 30.345 39.27 0 0 0
1270 4 17.85000000000001 28.560000000000002 42.84 0 0 0
1271 5 17.85000000000001 30.345 44.625 0 0 0
1272 3 19.635000000000005 28.560000000000002 44.625 0 0 0
1273 4 19.635000000000005 30.345 42.84 0 0 0
1274 2 17.85000000000001 28.560000000000002 46.410000000000004 0 0 0
1275 4 17.85000000000001 30.345 48.195 0 0 0
1276 4 19.635000000000005 28.560000000000002 48.195 0 0 0
1277 2 19.635000000000005 30.345 46.410000000000004 0 0 0
1278 3 17.85000000000001 28.560000000000002 49.980000000000004 0 0 0
1281 4 19.635000000000005 30.345 49.980000000000004 0 0 0
1303 1 19.635000000000005 32.13 26.775000000000006 0 0 0
1304 4 17.85000000000001 32.13 28.560000000000002 0 0 0
1305 5 17.85000000000001 33.915 30.345 0 0 0
1306 1 19.635000000000005 32.13 30.345 0 0 0
1307 3 19.635000000000005 33.915 28.560000000000002 0 0 0
1308 3 17.85000000000001 32.13 32.13 0 0 0
1309 4 17.85000000000001 33.915 33.915 0 0 0
1310 5 19.635000000000005 32.13 33.915 0 0 0
1311 3 19.635000000000005 33.915 32.13 0 0 0
1312 3 17.85000000000001 32.13 35.7 0 0 0
1313 1 17.85000000000001 33.915 37.485 0 0 0
1314 2 19.635000000000005 32.13 37.485 0 0 0
1315 3 19.635000000000005 33.915 35.7 0 0 0
1316 1 17.85000000000001 32.13 39.27 0 0 0
1317 3 17.85000000000001 33.915 41.055 0 0 0
1318 2 19.635000000000005 32.13 41.055 0 0 0
1319 2 19.635000000000005 33.915 39.27 0 0 0
1320 3 17.85000000000001 32.13 42.84 0 0 0
1321 2 17.85000000000001 33.915 44.625 0 0 0
1322 2 19.635000000000005 32.13 44.625 0 0 0
1323 4 19.635000000000005 33.915 42.84 0 0 0
1324 1 17.85000000000001 32.13 46.410000000000004 0 0 0
1325 5 17.85000000000001 33.915 48.195 0 0 0
1326 2 19.635000000000005 32.13 48.195 0 0 0
1327 5 19.635000000000005 33.915 46.410000000000004 0 0 0
1328 2 17.85000000000001 32.13 49.980000000000004 0 0 0
1331 2 19.635000000000005 33.915 49.980000000000004 0 0 0
1355 1 17.85000000000001 37.485 26.775000000000006 0 0 0
1356 4 19.635000000000005 35.7 26.775000000000006 0 0 0
1357 1 19.635000000000005 37.485 24.990000000000006 0 0 0
1358 2 17.85000000000001 35.7 28.560000000000002 0 0 0
1359 3 17.85000000000001 37.485 30.345 0 0 0
1360 1 19.635000000000005 35.7 30.345 0 0 0
1361 3 19.635000000000005 37.485 28.560000000000002 0 0 0
1362 5 17.85000000000001 35.7 32.13 0 0 0
1363 5 17.85000000000001 37.485 33.915 0 0 0
1364 5 19.635000000000005 35.7 33.915 0 0 0
1365 2 19.635000000000005 37.485 32.13 0 0 0
1366 1 17.85000000000001 35.7 35.7 0 0 0
1367 1 17.85000000000001 37.485 37.485 0 0 0
1368 1 19.635000000000005 35.7 37.485 0 0 0
1369 4 19.635000000000005 37.485 35.7 0 0 0
1370 5 17.85000000000001 35.7 39.27 0 0 0
1371 2 17.85000000000001 37.485 41.055 0 0 0
1372 1 19.635000000000005 35.7 41.055 0 0 0
1373 3 19.635000000000005 37.485 39.27 0 0 0
1374 5 17.85000000000001 35.7 42.84 0 0 0
1375 2 17.85000000000001 37.485 44.625 0 0 0
1376 3 19.635000000000005 35.7 44.625 0 0 0
1377 2 19.635000000000005 37.485 42.84 0 0 0
1378 1 17.85000000000001 35.7 46.410000000000004 0 0 0
1379 1 17.85000000000001 37.485 48.195 0 0 0
1380 2 19.635000000000005 35.7 48.195 0 0 0
1381 2 19.635000000000005 37.485 46.410000000000004 0 0 0
1382 5 17.85000000000001 35.7 49.980000000000004 0 0 0
1385 5 19.635000000000005 37.485 49.980000000000004 0 0 0
1411 1 17.85000000000001 41.055 26.775000000000006 0 0 0
1412 5 19.635000000000005 39.27 26.775000000000006 0 0 0
1413 2 19.635000000000005 41.055 24.990000000000006 0 0 0
1414 4 17.85000000000001 39.27 28.560000000000002 0 0 0
1415 3 17.85000000000001 41.055 30.345 0 0 0
1416 4 19.635000000000005 39.27 30.345 0 0 0
1417 2 19.635000000000005 41.055 28.560000000000002 0 0 0
1418 5 17.85000000000001 39.27 32.13 0 0 0
1419 3 17.85000000000001 41.055 33.915 0 0 0
1420 5 19.635000000000005 39.27 33.915 0 0 0
1421 4 19.635000000000005 41.055 32.13 0 0 0
1422 1 17.85000000000001 39.27 35.7 0 0 0
1423 4 17.85000000000001 41.055 37.485 0 0 0
1424 4 19.635000000000005 39.27 37.485 0 0 0
1425 3 19.635000000000005 41.055 35.7 0 0 0
1426 3 17.85000000000001 39.27 39.27 0 0 0
1427 2 17.85000000000001 41.055 41.055 0 0 0
1428 2 19.635000000000005 39.27 41.055 0 0 0
1429 4 19.635000000000005 41.055 39.27 0 0 0
1430 3 17.85000000000001 39.27 42.84 0 0 0
1431 3 17.85000000000001 41.055 44.625 0 0 0
1432 4 19.635000000000005 39.27 44.625 0 0 0
1433 1 19.635000000000005 41.055 42.84 0 0 0
1434 5 17.85000000000001 39.27 46.410000000000004 0 0 0
1435 1 17.85000000000001 41.055 48.195 0 0 0
1436 2 19.635000000000005 39.27 48.195 0 0 0
1437 1 19.635000000000005 41.055 46.410000000000004 0 0 0
1438 3 17.85000000000001 39.27 49.980000000000004 0 0 0
1441 4 19.635000000000005 41.055 49.980000000000004 0 0 0
1467 4 19.635000000000005 42.84 23.205000000000005 0 0 0
1468 2 17.85000000000001 42.84 24.990000000000006 0 0 0
1469 5 17.85000000000001 44.625 26.775000000000006 0 0 0
1470 5 19.635000000000005 42.84 26.775000000000006 0 0 0
1471 3 19.635000000000005 44.625 24.990000000000006 0 0 0
1472 4 17.85000000000001 42.84 28.560000000000002 0 0 0
1473 2 17.85000000000001 44.625 30.345 0 0 0
1474 2 19.635000000000005 42.84 30.345 0 0 0
1475 5 19.635000000000005 44.625 28.560000000000002 0 0 0
1476 3 17.85000000000001 42.84 32.13 0 0 0
1477 1 17.85000000000001 44.625 33.915 0 0 0
1478 2 19.635000000000005 42.84 33.915 0 0 0
1479 4 19.635000000000005 44.625 32.13 0 0 0
1480 2 17.85000000000001 42.84 35.7 0 0 0
1481 1 17.85000000000001 44.625 37.485 0 0 0
1482 5 19.635000000000005 42.84 37.485 0 0 0
1483 2 19.635000000000005 44.625 35.7 0 0 0
1484 3 17.85000000000001 42.84 39.27 0 0 0
1485 3 17.85000000000001 44.625 41.055 0 0 0
1486 3 19.635000000000005 42.84 41.055 0 0 0
1487 5 19.635000000000005 44.625 39.27 0 0 0
1488 4 17.85000000000001 42.84 42.84 0 0 0
1489 4 17.85000000000001 44.625 44.625 0 0 0
1490 1 19.635000000000005 42.84 44.625 0 0 0
1491 4 19.635000000000005 44.625 42.84 0 0 0
1492 1 17.85000000000001 42.84 46.410000000000004 0 0 0
1493 5 17.85000000000001 44.625 48.195 0 0 0
1494 5 19.635000000000005 42.84 48.195 0 0 0
1495 3 19.635000000000005 44.625 46.410000000000004 0 0 0
1496 1 17.85000000000001 42.84 49.980000000000004 0 0 0
1499 2 19.635000000000005 44.625 49.980000000000004 0 0 0
1527 2 17.85000000000001 48.195 23.205000000000005 0 0 0
1528 3 19.635000000000005 46.410000000000004 23.205000000000005 0 0 0
1529 1 19.635000000000005 48.195 21.420000000000005 0 0 0
1530 1 17.85000000000001 46.410000000000004 24.990000000000006 0 0 0
1531 2 17.85000000000001 48.195 26.775000000000006 0 0 0
1532 3 19.635000000000005 46.410000000000004 26.775000000000006 0 0 0
1533 1 19.635000000000005 48.195 24.990000000000006 0 0 0
1534 4 17.85000000000001 46.410000000000004 28.560000000000002 0 0 0
1535 3 17.85000000000001 48.195 30.345 0 0 0
1536 5 19.635000000000005 46.410000000000004 30.345 0 0 0
1537 4 19.635000000000005 48.195 28.560000000000002 0 0 0
1538 3 17.85000000000001 46.410000000000004 32.13 0 0 0
1539 1 17.85000000000001 48.195 33.915 0 0 0
1540 4 19.635000000000005 46.410000000000004 33.915 0 0 0
1541 5 19.635000000000005 48.195 32.13 0 0 0
1542 1 17.85000000000001 46.410000000000004 35.7 0 0 0
1543 2 17.85000000000001 48.195 37.485 0 0 0
1544 1 19.635000000000005 46.410000000000004 37.485 0 0 0
1545 2 19.635000000000005 48.195 35.7 0 0 0
1546 1 17.85000000000001 46.410000000000004 39.27 0 0 0
1547 1 17.85000000000001 48.195 41.055 0 0 0
1548 1 19.635000000000005 46.410000000000004 41.055 0 0 0
1549 4 19.635000000000005 48.195 39.27 0 0 0
1550 3 17.85000000000001 46.410000000000004 42.84 0 0 0
1551 1 17.85000000000001 48.195 44.625 0 0 0
1552 4 19.635000000000005 46.410000000000004 44.625 0 0 0
1553 1 19.635000000000005 48.195 42.84 0 0 0
1554 3 17.85000000000001 46.410000000000004 46.410000000000004 0 0 0
1555 2 17.85000000000001 48.195 48.195 0 0 0
1556 4 19.635000000000005 46.410000000000004 48.195 0 0 0
1557 2 19.635000000000005 48.195 46.410000000000004 0 0 0
1558 3 17.85000000000001 46.410000000000004 49.980000000000004 0 0 0
1561 3 19.635000000000005 48.195 49.980000000000004 0 0 0
1592 5 19.635000000000005 49.980000000000004 23.205000000000005 0 0 0
1594 4 17.85000000000001 49.980000000000004 24.990000000000006 0 0 0
1596 3 19.635000000000005 49.980000000000004 26.775000000000006 0 0 0
1598 5 17.85000000000001 49.980000000000004 28.560000000000002 0 0 0
1600 2 19.635000000000005 49.980000000000004 30.345 0 0 0
1602 2 17.85000000000001 49.980000000000004 32.13 0 0 0
1604 2 19.635000000000005 49.980000000000004 33.915 0 0 0
1606 2 17.85000000000001 49.980000000000004 35.7 0 0 0
1608 3 19.635000000000005 49.980000000000004 37.485 0 0 0
1610 3 17.85000000000001 49.980000000000004 39.27 0 0 0
1612 5 19.635000000000005 49.980000000000004 41.055 0 0 0
1614 3 17.85000000000001 49.980000000000004 42.84 0 0 0
1616 3 19.635000000000005 49.980000000000004 44.625 0 0 0
1618 4 17.85000000000001 49.980000000000004 46.410000000000004 0 0 0
1620 5 19.635000000000005 49.980000000000004 48.195 0 0 0
1622 3 17.85000000000001 49.980000000000004 49.980000000000004 0 0 0
1999 5 23.205000000000005 19.635000000000005 42.84 0 0 0
2000 1 21.420000000000005 19.635000000000005 48.195 0 0 0
2001 2 23.205000000000005 17.85000000000001 48.195 0 0 0
2002 2 23.205000000000005 19.635000000000005 46.410000000000004 0 0 0
2005 4 23.205000000000005 19.635000000000005 49.980000000000004 0 0 0
2008 4 23.205000000000005 23.205000000000005 28.560000000000002 0 0 0
2009 4 21.420000000000005 23.205000000000005 33.915 0 0 0
2010 5 23.205000000000005 21.420000000000005 33.915 0 0 0
2011 3 23.205000000000005 23.205000000000005 32.13 0 0 0
2012 5 21.420000000000005 23.205000000000005 37.485 0 0 0
2013 5 23.205000000000005 21.420000000000005 37.485 0 0 0
2014 2 23.205000000000005 23.205000000000005 35.7 0 0 0
2015 5 21.420000000000005 21.420000000000005 39.27 0 0 0
2016 3 21.420000000000005 23.205000000000005 41.055 0 0 0
2017 5 23.205000000000005 21.420000000000005 41.055 0 0 0
2018 5 23.205000000000005 23.205000000000005 39.27 0 0 0
2019 5 21.420000000000005 21.420000000000005 42.84 0 0 0
2020 1 21.420000000000005 23.205000000000005 44.625 0 0 0
2021 4 23.205000000000005 21.420000000000005 44.625 0 0 0
2022 5 23.205000000000005 23.205000000000005 42.84 0 0 0
2023 3 21.420000000000005 21.420000000000005 46.410000000000004 0 0 0