model_files/NiFeCrCoCu/NiFeCrCoCu_30000/NiFeCrCoCu_431/NiFeCrCoCu_431_fcc_29685_temp.data (written by ASE) 

29685 	 atoms 
5  atom types
0.0                     101  xlo xhi
0.0                     101  ylo yhi
0.0                     101  zlo zhi


Atoms 

     1   1      1.7850000000000037                  44.625      49.980000000000004
     2   1  7.1054273576010019e-15                  48.195                  48.195
     3   1      1.7850000000000037      46.410000000000004                  48.195
     4   1      1.7850000000000037                  48.195      46.410000000000004
     5   1  7.1054273576010019e-15      46.410000000000004      49.980000000000004
     6   1  7.1054273576010019e-15                  48.195      51.765000000000001
     7   1      1.7850000000000037      46.410000000000004      51.765000000000001
     8   1      1.7850000000000037                  48.195      49.980000000000004
     9   1      1.7850000000000037                  48.195      53.550000000000004
    10   1      1.7850000000000037      49.980000000000004                  44.625
    11   1  7.1054273576010019e-15      49.980000000000004      46.410000000000004
    12   1  7.1054273576010019e-15      51.765000000000001                  48.195
    13   1      1.7850000000000037      49.980000000000004                  48.195
    14   1      1.7850000000000037      51.765000000000001      46.410000000000004
    15   1  7.1054273576010019e-15      49.980000000000004      49.980000000000004
    16   1  7.1054273576010019e-15      51.765000000000001      51.765000000000001
    17   1      1.7850000000000037      49.980000000000004      51.765000000000001
    18   1      1.7850000000000037      51.765000000000001      49.980000000000004
    19   1  7.1054273576010019e-15      49.980000000000004      53.550000000000004
    20   1      1.7850000000000037      49.980000000000004      55.335000000000001
    21   1      1.7850000000000037      51.765000000000001      53.550000000000004
    22   1      1.7850000000000037      53.550000000000004                  48.195
    23   1  7.1054273576010019e-15      53.550000000000004      49.980000000000004
    24   1      1.7850000000000037      53.550000000000004      51.765000000000001
    25   1      1.7850000000000037      55.335000000000001      49.980000000000004
    26   1       5.355000000000004                  41.055      46.410000000000004
    27   1       5.355000000000004                  41.055      49.980000000000004
    28   1       5.355000000000004                  41.055      53.550000000000004
    29   1      3.5700000000000074                  44.625                  44.625
    30   1       5.355000000000004      42.840000000000003                  44.625
    31   1       5.355000000000004                  44.625      42.840000000000003
    32   1      3.5700000000000074      42.840000000000003      46.410000000000004
    33   1      3.5700000000000074                  44.625                  48.195
    34   1       5.355000000000004      42.840000000000003                  48.195
    35   1       5.355000000000004                  44.625      46.410000000000004
    36   1      3.5700000000000074      42.840000000000003      49.980000000000004
    37   1      3.5700000000000074                  44.625      51.765000000000001
    38   1       5.355000000000004      42.840000000000003      51.765000000000001
    39   1       5.355000000000004                  44.625      49.980000000000004
    40   1      3.5700000000000074      42.840000000000003      53.550000000000004
    41   1      3.5700000000000074                  44.625      55.335000000000001
    42   1       5.355000000000004      42.840000000000003      55.335000000000001
    43   1       5.355000000000004                  44.625      53.550000000000004
    44   1       5.355000000000004                  44.625      57.120000000000005
    45   1       5.355000000000004      46.410000000000004                  41.055
    46   1      3.5700000000000074      46.410000000000004      42.840000000000003
    47   1      3.5700000000000074                  48.195                  44.625
    48   1       5.355000000000004      46.410000000000004                  44.625
    49   1       5.355000000000004                  48.195      42.840000000000003
    50   1      3.5700000000000074      46.410000000000004      46.410000000000004
    51   1      3.5700000000000074                  48.195                  48.195
    52   1       5.355000000000004      46.410000000000004                  48.195
    53   1       5.355000000000004                  48.195      46.410000000000004
    54   1      3.5700000000000074      46.410000000000004      49.980000000000004
    55   1      3.5700000000000074                  48.195      51.765000000000001
    56   1       5.355000000000004      46.410000000000004      51.765000000000001
    57   1       5.355000000000004                  48.195      49.980000000000004
    58   1      3.5700000000000074      46.410000000000004      53.550000000000004
    59   1      3.5700000000000074                  48.195      55.335000000000001
    60   1       5.355000000000004      46.410000000000004      55.335000000000001
    61   1       5.355000000000004                  48.195      53.550000000000004
    62   1      3.5700000000000074      46.410000000000004      57.120000000000005
    63   1       5.355000000000004      46.410000000000004      58.904999999999994
    64   1       5.355000000000004                  48.195      57.120000000000005
    65   1       5.355000000000004      49.980000000000004                  41.055
    66   1      3.5700000000000074      49.980000000000004      42.840000000000003
    67   1      3.5700000000000074      51.765000000000001                  44.625
    68   1       5.355000000000004      49.980000000000004                  44.625
    69   1       5.355000000000004      51.765000000000001      42.840000000000003
    70   1      3.5700000000000074      49.980000000000004      46.410000000000004
    71   1      3.5700000000000074      51.765000000000001                  48.195
    72   1       5.355000000000004      49.980000000000004                  48.195
    73   1       5.355000000000004      51.765000000000001      46.410000000000004
    74   1      3.5700000000000074      49.980000000000004      49.980000000000004
    75   1      3.5700000000000074      51.765000000000001      51.765000000000001
    76   1       5.355000000000004      49.980000000000004      51.765000000000001
    77   1       5.355000000000004      51.765000000000001      49.980000000000004
    78   1      3.5700000000000074      49.980000000000004      53.550000000000004
    79   1      3.5700000000000074      51.765000000000001      55.335000000000001
    80   1       5.355000000000004      49.980000000000004      55.335000000000001
    81   1       5.355000000000004      51.765000000000001      53.550000000000004
    82   1      3.5700000000000074      49.980000000000004      57.120000000000005
    83   1       5.355000000000004      49.980000000000004      58.904999999999994
    84   1       5.355000000000004      51.765000000000001      57.120000000000005
    85   1       5.355000000000004      53.550000000000004                  41.055
    86   1      3.5700000000000074      53.550000000000004      42.840000000000003
    87   1      3.5700000000000074      55.335000000000001                  44.625
    88   1       5.355000000000004      53.550000000000004                  44.625
    89   1       5.355000000000004      55.335000000000001      42.840000000000003
    90   1      3.5700000000000074      53.550000000000004      46.410000000000004
    91   1      3.5700000000000074      55.335000000000001                  48.195
    92   1       5.355000000000004      53.550000000000004                  48.195
    93   1       5.355000000000004      55.335000000000001      46.410000000000004
    94   1      3.5700000000000074      53.550000000000004      49.980000000000004
    95   1      3.5700000000000074      55.335000000000001      51.765000000000001
    96   1       5.355000000000004      53.550000000000004      51.765000000000001
    97   1       5.355000000000004      55.335000000000001      49.980000000000004
    98   1      3.5700000000000074      53.550000000000004      53.550000000000004
    99   1      3.5700000000000074      55.335000000000001      55.335000000000001
   100   1       5.355000000000004      53.550000000000004      55.335000000000001
   101   1       5.355000000000004      55.335000000000001      53.550000000000004
   102   1      3.5700000000000074      53.550000000000004      57.120000000000005
   103   1       5.355000000000004      53.550000000000004      58.904999999999994
   104   1       5.355000000000004      55.335000000000001      57.120000000000005
   105   1       5.355000000000004      57.120000000000005                  44.625
   106   1      3.5700000000000074      57.120000000000005      46.410000000000004
   107   1       5.355000000000004      57.120000000000005                  48.195
   108   1       5.355000000000004      58.904999999999994      46.410000000000004
   109   1      3.5700000000000074      57.120000000000005      49.980000000000004
   110   1       5.355000000000004      57.120000000000005      51.765000000000001
   111   1       5.355000000000004      58.904999999999994      49.980000000000004
   112   1      3.5700000000000074      57.120000000000005      53.550000000000004
   113   1       5.355000000000004      57.120000000000005      55.335000000000001
   114   1       5.355000000000004      58.904999999999994      53.550000000000004
   115   1      8.9250000000000043      37.484999999999999      42.840000000000003
   116   1      7.1400000000000077      37.484999999999999                  48.195
   117   1      8.9250000000000043      35.700000000000003                  48.195
   118   1      8.9250000000000043      37.484999999999999      46.410000000000004
   119   1      7.1400000000000077      37.484999999999999      51.765000000000001
   120   1      8.9250000000000043      35.700000000000003      51.765000000000001
   121   1      8.9250000000000043      37.484999999999999      49.980000000000004
   122   1      8.9250000000000043      37.484999999999999      53.550000000000004
   123   1      8.9250000000000043      37.484999999999999      57.120000000000005
   124   1      7.1400000000000077                  41.055                  41.055
   125   1      8.9250000000000043      39.270000000000003                  41.055
   126   1      8.9250000000000043                  41.055      39.270000000000003
   127   1      7.1400000000000077      39.270000000000003      42.840000000000003
   128   1      7.1400000000000077                  41.055                  44.625
   129   1      8.9250000000000043      39.270000000000003                  44.625
   130   1      8.9250000000000043                  41.055      42.840000000000003
   131   1      7.1400000000000077      39.270000000000003      46.410000000000004
   132   1      7.1400000000000077                  41.055                  48.195
   133   1      8.9250000000000043      39.270000000000003                  48.195
   134   1      8.9250000000000043                  41.055      46.410000000000004
   135   1      7.1400000000000077      39.270000000000003      49.980000000000004
   136   1      7.1400000000000077                  41.055      51.765000000000001
   137   1      8.9250000000000043      39.270000000000003      51.765000000000001
   138   1      8.9250000000000043                  41.055      49.980000000000004
   139   1      7.1400000000000077      39.270000000000003      53.550000000000004
   140   1      7.1400000000000077                  41.055      55.335000000000001
   141   1      8.9250000000000043      39.270000000000003      55.335000000000001
   142   1      8.9250000000000043                  41.055      53.550000000000004
   143   1      7.1400000000000077      39.270000000000003      57.120000000000005
   144   1      7.1400000000000077                  41.055      58.904999999999994
   145   1      8.9250000000000043      39.270000000000003      58.904999999999994
   146   1      8.9250000000000043                  41.055      57.120000000000005
   147   1      8.9250000000000043                  41.055      60.689999999999998
   148   1      8.9250000000000043      42.840000000000003      37.484999999999999
   149   1      7.1400000000000077      42.840000000000003      39.270000000000003
   150   1      7.1400000000000077                  44.625                  41.055
   151   1      8.9250000000000043      42.840000000000003                  41.055
   152   1      8.9250000000000043                  44.625      39.270000000000003
   153   1      7.1400000000000077      42.840000000000003      42.840000000000003
   154   1      7.1400000000000077                  44.625                  44.625
   155   1      8.9250000000000043      42.840000000000003                  44.625
   156   1      8.9250000000000043                  44.625      42.840000000000003
   157   1      7.1400000000000077      42.840000000000003      46.410000000000004
   158   1      7.1400000000000077                  44.625                  48.195
   159   1      8.9250000000000043      42.840000000000003                  48.195
   160   1      8.9250000000000043                  44.625      46.410000000000004
   161   1      7.1400000000000077      42.840000000000003      49.980000000000004
   162   1      7.1400000000000077                  44.625      51.765000000000001
   163   1      8.9250000000000043      42.840000000000003      51.765000000000001
   164   1      8.9250000000000043                  44.625      49.980000000000004
   165   1      7.1400000000000077      42.840000000000003      53.550000000000004
   166   1      7.1400000000000077                  44.625      55.335000000000001
   167   1      8.9250000000000043      42.840000000000003      55.335000000000001
   168   1      8.9250000000000043                  44.625      53.550000000000004
   169   1      7.1400000000000077      42.840000000000003      57.120000000000005
   170   1      7.1400000000000077                  44.625      58.904999999999994
   171   1      8.9250000000000043      42.840000000000003      58.904999999999994
   172   1      8.9250000000000043                  44.625      57.120000000000005
   173   1      7.1400000000000077      42.840000000000003      60.689999999999998
   174   1      8.9250000000000043      42.840000000000003      62.475000000000001
   175   1      8.9250000000000043                  44.625      60.689999999999998
   176   1      7.1400000000000077                  48.195      37.484999999999999
   177   1      8.9250000000000043      46.410000000000004      37.484999999999999
   178   1      8.9250000000000043                  48.195      35.700000000000003
   179   1      7.1400000000000077      46.410000000000004      39.270000000000003
   180   1      7.1400000000000077                  48.195                  41.055
   181   1      8.9250000000000043      46.410000000000004                  41.055
   182   1      8.9250000000000043                  48.195      39.270000000000003
   183   1      7.1400000000000077      46.410000000000004      42.840000000000003
   184   1      7.1400000000000077                  48.195                  44.625
   185   1      8.9250000000000043      46.410000000000004                  44.625
   186   1      8.9250000000000043                  48.195      42.840000000000003
   187   1      7.1400000000000077      46.410000000000004      46.410000000000004
   188   1      7.1400000000000077                  48.195                  48.195
   189   1      8.9250000000000043      46.410000000000004                  48.195
   190   1      8.9250000000000043                  48.195      46.410000000000004
   191   1      7.1400000000000077      46.410000000000004      49.980000000000004
   192   1      7.1400000000000077                  48.195      51.765000000000001
   193   1      8.9250000000000043      46.410000000000004      51.765000000000001
   194   1      8.9250000000000043                  48.195      49.980000000000004
   195   1      7.1400000000000077      46.410000000000004      53.550000000000004
   196   1      7.1400000000000077                  48.195      55.335000000000001
   197   1      8.9250000000000043      46.410000000000004      55.335000000000001
   198   1      8.9250000000000043                  48.195      53.550000000000004
   199   1      7.1400000000000077      46.410000000000004      57.120000000000005
   200   1      7.1400000000000077                  48.195      58.904999999999994
   201   1      8.9250000000000043      46.410000000000004      58.904999999999994
   202   1      8.9250000000000043                  48.195      57.120000000000005
   203   1      7.1400000000000077      46.410000000000004      60.689999999999998
   204   1      7.1400000000000077                  48.195      62.475000000000001
   205   1      8.9250000000000043      46.410000000000004      62.475000000000001
   206   1      8.9250000000000043                  48.195      60.689999999999998
   207   1      8.9250000000000043                  48.195      64.260000000000005
   208   1      7.1400000000000077      51.765000000000001      37.484999999999999
   209   1      8.9250000000000043      49.980000000000004      37.484999999999999
   210   1      8.9250000000000043      51.765000000000001      35.700000000000003
   211   1      7.1400000000000077      49.980000000000004      39.270000000000003
   212   1      7.1400000000000077      51.765000000000001                  41.055
   213   1      8.9250000000000043      49.980000000000004                  41.055
   214   1      8.9250000000000043      51.765000000000001      39.270000000000003
   215   1      7.1400000000000077      49.980000000000004      42.840000000000003
   216   1      7.1400000000000077      51.765000000000001                  44.625
   217   1      8.9250000000000043      49.980000000000004                  44.625
   218   1      8.9250000000000043      51.765000000000001      42.840000000000003
   219   1      7.1400000000000077      49.980000000000004      46.410000000000004
   220   1      7.1400000000000077      51.765000000000001                  48.195
   221   1      8.9250000000000043      49.980000000000004                  48.195
   222   1      8.9250000000000043      51.765000000000001      46.410000000000004
   223   1      7.1400000000000077      49.980000000000004      49.980000000000004
   224   1      7.1400000000000077      51.765000000000001      51.765000000000001
   225   1      8.9250000000000043      49.980000000000004      51.765000000000001
   226   1      8.9250000000000043      51.765000000000001      49.980000000000004
   227   1      7.1400000000000077      49.980000000000004      53.550000000000004
   228   1      7.1400000000000077      51.765000000000001      55.335000000000001
   229   1      8.9250000000000043      49.980000000000004      55.335000000000001
   230   1      8.9250000000000043      51.765000000000001      53.550000000000004
   231   1      7.1400000000000077      49.980000000000004      57.120000000000005
   232   1      7.1400000000000077      51.765000000000001      58.904999999999994
   233   1      8.9250000000000043      49.980000000000004      58.904999999999994
   234   1      8.9250000000000043      51.765000000000001      57.120000000000005
   235   1      7.1400000000000077      49.980000000000004      60.689999999999998
   236   1      7.1400000000000077      51.765000000000001      62.475000000000001
   237   1      8.9250000000000043      49.980000000000004      62.475000000000001
   238   1      8.9250000000000043      51.765000000000001      60.689999999999998
   239   1      8.9250000000000043      51.765000000000001      64.260000000000005
   240   1      8.9250000000000043      53.550000000000004      37.484999999999999
   241   1      7.1400000000000077      53.550000000000004      39.270000000000003
   242   1      7.1400000000000077      55.335000000000001                  41.055
   243   1      8.9250000000000043      53.550000000000004                  41.055
   244   1      8.9250000000000043      55.335000000000001      39.270000000000003
   245   1      7.1400000000000077      53.550000000000004      42.840000000000003
   246   1      7.1400000000000077      55.335000000000001                  44.625
   247   1      8.9250000000000043      53.550000000000004                  44.625
   248   1      8.9250000000000043      55.335000000000001      42.840000000000003
   249   1      7.1400000000000077      53.550000000000004      46.410000000000004
   250   1      7.1400000000000077      55.335000000000001                  48.195
   251   1      8.9250000000000043      53.550000000000004                  48.195
   252   1      8.9250000000000043      55.335000000000001      46.410000000000004
   253   1      7.1400000000000077      53.550000000000004      49.980000000000004
   254   1      7.1400000000000077      55.335000000000001      51.765000000000001
   255   1      8.9250000000000043      53.550000000000004      51.765000000000001
   256   1      8.9250000000000043      55.335000000000001      49.980000000000004
   257   1      7.1400000000000077      53.550000000000004      53.550000000000004
   258   1      7.1400000000000077      55.335000000000001      55.335000000000001
   259   1      8.9250000000000043      53.550000000000004      55.335000000000001
   260   1      8.9250000000000043      55.335000000000001      53.550000000000004
   261   1      7.1400000000000077      53.550000000000004      57.120000000000005
   262   1      7.1400000000000077      55.335000000000001      58.904999999999994
   263   1      8.9250000000000043      53.550000000000004      58.904999999999994
   264   1      8.9250000000000043      55.335000000000001      57.120000000000005
   265   1      7.1400000000000077      53.550000000000004      60.689999999999998
   266   1      8.9250000000000043      53.550000000000004      62.475000000000001
   267   1      8.9250000000000043      55.335000000000001      60.689999999999998
   268   1      8.9250000000000043      57.120000000000005      37.484999999999999
   269   1      7.1400000000000077      57.120000000000005      39.270000000000003
   270   1      7.1400000000000077      58.904999999999994                  41.055
   271   1      8.9250000000000043      57.120000000000005                  41.055
   272   1      8.9250000000000043      58.904999999999994      39.270000000000003
   273   1      7.1400000000000077      57.120000000000005      42.840000000000003
   274   1      7.1400000000000077      58.904999999999994                  44.625
   275   1      8.9250000000000043      57.120000000000005                  44.625
   276   1      8.9250000000000043      58.904999999999994      42.840000000000003
   277   1      7.1400000000000077      57.120000000000005      46.410000000000004
   278   1      7.1400000000000077      58.904999999999994                  48.195
   279   1      8.9250000000000043      57.120000000000005                  48.195
   280   1      8.9250000000000043      58.904999999999994      46.410000000000004
   281   1      7.1400000000000077      57.120000000000005      49.980000000000004
   282   1      7.1400000000000077      58.904999999999994      51.765000000000001
   283   1      8.9250000000000043      57.120000000000005      51.765000000000001
   284   1      8.9250000000000043      58.904999999999994      49.980000000000004
   285   1      7.1400000000000077      57.120000000000005      53.550000000000004
   286   1      7.1400000000000077      58.904999999999994      55.335000000000001
   287   1      8.9250000000000043      57.120000000000005      55.335000000000001
   288   1      8.9250000000000043      58.904999999999994      53.550000000000004
   289   1      7.1400000000000077      57.120000000000005      57.120000000000005
   290   1      7.1400000000000077      58.904999999999994      58.904999999999994
   291   1      8.9250000000000043      57.120000000000005      58.904999999999994
   292   1      8.9250000000000043      58.904999999999994      57.120000000000005
   293   1      7.1400000000000077      57.120000000000005      60.689999999999998
   294   1      8.9250000000000043      57.120000000000005      62.475000000000001
   295   1      8.9250000000000043      58.904999999999994      60.689999999999998
   296   1      8.9250000000000043      60.689999999999998                  41.055
   297   1      7.1400000000000077      60.689999999999998      42.840000000000003
   298   1      8.9250000000000043      60.689999999999998                  44.625
   299   1      8.9250000000000043      62.475000000000001      42.840000000000003
   300   1      7.1400000000000077      60.689999999999998      46.410000000000004
   301   1      7.1400000000000077      62.475000000000001                  48.195
   302   1      8.9250000000000043      60.689999999999998                  48.195
   303   1      8.9250000000000043      62.475000000000001      46.410000000000004
   304   1      7.1400000000000077      60.689999999999998      49.980000000000004
   305   1      7.1400000000000077      62.475000000000001      51.765000000000001
   306   1      8.9250000000000043      60.689999999999998      51.765000000000001
   307   1      8.9250000000000043      62.475000000000001      49.980000000000004
   308   1      7.1400000000000077      60.689999999999998      53.550000000000004
   309   1      8.9250000000000043      60.689999999999998      55.335000000000001
   310   1      8.9250000000000043      62.475000000000001      53.550000000000004
   311   1      7.1400000000000077      60.689999999999998      57.120000000000005
   312   1      8.9250000000000043      60.689999999999998      58.904999999999994
   313   1      8.9250000000000043      62.475000000000001      57.120000000000005
   314   1      8.9250000000000043      64.260000000000005                  48.195
   315   1      8.9250000000000043      64.260000000000005      51.765000000000001
   316   1      12.495000000000005      30.344999999999999      49.980000000000004
   317   1      12.495000000000005      33.914999999999999      39.270000000000003
   318   1      10.710000000000008      33.914999999999999                  44.625
   319   1      12.495000000000005      32.130000000000003                  44.625
   320   1      12.495000000000005      33.914999999999999      42.840000000000003
   321   1      10.710000000000008      33.914999999999999                  48.195
   322   1      12.495000000000005      32.130000000000003                  48.195
   323   1      12.495000000000005      33.914999999999999      46.410000000000004
   324   1      10.710000000000008      32.130000000000003      49.980000000000004
   325   1      10.710000000000008      33.914999999999999      51.765000000000001
   326   1      12.495000000000005      32.130000000000003      51.765000000000001
   327   1      12.495000000000005      33.914999999999999      49.980000000000004
   328   1      10.710000000000008      33.914999999999999      55.335000000000001
   329   1      12.495000000000005      32.130000000000003      55.335000000000001
   330   1      12.495000000000005      33.914999999999999      53.550000000000004
   331   1      12.495000000000005      33.914999999999999      57.120000000000005
   332   1      12.495000000000005      33.914999999999999      60.689999999999998
   333   1      10.710000000000008      37.484999999999999      37.484999999999999
   334   1      12.495000000000005      35.700000000000003      37.484999999999999
   335   1      12.495000000000005      37.484999999999999      35.700000000000003
   336   1      10.710000000000008      35.700000000000003      39.270000000000003
   337   1      10.710000000000008      37.484999999999999                  41.055
   338   1      12.495000000000005      35.700000000000003                  41.055
   339   1      12.495000000000005      37.484999999999999      39.270000000000003
   340   1      10.710000000000008      35.700000000000003      42.840000000000003
   341   1      10.710000000000008      37.484999999999999                  44.625
   342   1      12.495000000000005      35.700000000000003                  44.625
   343   1      12.495000000000005      37.484999999999999      42.840000000000003
   344   1      10.710000000000008      35.700000000000003      46.410000000000004
   345   1      10.710000000000008      37.484999999999999                  48.195
   346   1      12.495000000000005      35.700000000000003                  48.195
   347   1      12.495000000000005      37.484999999999999      46.410000000000004
   348   1      10.710000000000008      35.700000000000003      49.980000000000004
   349   1      10.710000000000008      37.484999999999999      51.765000000000001
   350   1      12.495000000000005      35.700000000000003      51.765000000000001
   351   1      12.495000000000005      37.484999999999999      49.980000000000004
   352   1      10.710000000000008      35.700000000000003      53.550000000000004
   353   1      10.710000000000008      37.484999999999999      55.335000000000001
   354   1      12.495000000000005      35.700000000000003      55.335000000000001
   355   1      12.495000000000005      37.484999999999999      53.550000000000004
   356   1      10.710000000000008      35.700000000000003      57.120000000000005
   357   1      10.710000000000008      37.484999999999999      58.904999999999994
   358   1      12.495000000000005      35.700000000000003      58.904999999999994