model_files/PtCo/PtCo_30000/PtCo_410/PtCo_410_fcc_29755_temp.data (written by ASE) 

29755 	 atoms 
2  atom types
0.0                      80  xlo xhi
0.0                      80  ylo yhi
0.0                      80  zlo zhi


Atoms 

     1   1      1.8250000000000099      29.200000000000014      31.025000000000013
     2   1      1.8250000000000099      31.025000000000013      29.200000000000014
     3   1      1.8250000000000099      29.200000000000014      34.675000000000011
     4   1      1.8250000000000099      31.025000000000013      32.850000000000009
     5   1      1.8250000000000099      29.200000000000014      38.325000000000017
     6   1      1.8250000000000099      31.025000000000013      36.500000000000007
     7   1      1.8250000000000099      29.200000000000014      41.975000000000009
     8   1      1.8250000000000099      31.025000000000013      40.150000000000006
     9   1      1.8250000000000099      29.200000000000014      45.625000000000007
    10   1      1.8250000000000099      31.025000000000013      43.800000000000011
    11   1      1.8250000000000099      29.200000000000014       49.27500000000002
    12   1      1.8250000000000099      31.025000000000013       47.45000000000001
    13   1      1.8250000000000099      31.025000000000013      51.100000000000009
    14   1      1.8250000000000099      32.850000000000009      31.025000000000013
    15   1      1.8250000000000099      34.675000000000011      29.200000000000014
    16   1      1.8250000000000099      32.850000000000009      34.675000000000011
    17   1      1.8250000000000099      34.675000000000011      32.850000000000009
    18   1      1.8250000000000099      32.850000000000009      38.325000000000017
    19   1      1.8250000000000099      34.675000000000011      36.500000000000007
    20   1      1.8250000000000099      32.850000000000009      41.975000000000009
    21   1      1.8250000000000099      34.675000000000011      40.150000000000006
    22   1      1.8250000000000099      32.850000000000009      45.625000000000007
    23   1      1.8250000000000099      34.675000000000011      43.800000000000011
    24   1      1.8250000000000099      32.850000000000009       49.27500000000002
    25   1      1.8250000000000099      34.675000000000011       47.45000000000001
    26   1      1.8250000000000099      34.675000000000011      51.100000000000009
    27   1      1.8250000000000099      36.500000000000007      31.025000000000013
    28   1      1.8250000000000099      38.325000000000017      29.200000000000014
    29   1      1.8250000000000099      36.500000000000007      34.675000000000011
    30   1      1.8250000000000099      38.325000000000017      32.850000000000009
    31   1  7.1054273576010019e-15      36.500000000000007      36.500000000000007
    32   1  7.1054273576010019e-15      38.325000000000017      38.325000000000017
    33   1      1.8250000000000099      36.500000000000007      38.325000000000017
    34   1      1.8250000000000099      38.325000000000017      36.500000000000007
    35   1  7.1054273576010019e-15      36.500000000000007      40.150000000000006
    36   1  7.1054273576010019e-15      38.325000000000017      41.975000000000009
    37   1      1.8250000000000099      36.500000000000007      41.975000000000009
    38   1      1.8250000000000099      38.325000000000017      40.150000000000006
    39   1  7.1054273576010019e-15      36.500000000000007      43.800000000000011
    40   1      1.8250000000000099      36.500000000000007      45.625000000000007
    41   1      1.8250000000000099      38.325000000000017      43.800000000000011
    42   1      1.8250000000000099      36.500000000000007       49.27500000000002
    43   1      1.8250000000000099      38.325000000000017       47.45000000000001
    44   1      1.8250000000000099      38.325000000000017      51.100000000000009
    45   1      1.8250000000000099      40.150000000000006      31.025000000000013
    46   1      1.8250000000000099      41.975000000000009      29.200000000000014
    47   1      1.8250000000000099      40.150000000000006      34.675000000000011
    48   1      1.8250000000000099      41.975000000000009      32.850000000000009
    49   1  7.1054273576010019e-15      40.150000000000006      36.500000000000007
    50   1  7.1054273576010019e-15      41.975000000000009      38.325000000000017
    51   1      1.8250000000000099      40.150000000000006      38.325000000000017
    52   1      1.8250000000000099      41.975000000000009      36.500000000000007
    53   1  7.1054273576010019e-15      40.150000000000006      40.150000000000006
    54   1  7.1054273576010019e-15      41.975000000000009      41.975000000000009
    55   1      1.8250000000000099      40.150000000000006      41.975000000000009
    56   1      1.8250000000000099      41.975000000000009      40.150000000000006
    57   1  7.1054273576010019e-15      40.150000000000006      43.800000000000011
    58   1      1.8250000000000099      40.150000000000006      45.625000000000007
    59   1      1.8250000000000099      41.975000000000009      43.800000000000011
    60   1      1.8250000000000099      40.150000000000006       49.27500000000002
    61   1      1.8250000000000099      41.975000000000009       47.45000000000001
    62   1      1.8250000000000099      41.975000000000009      51.100000000000009
    63   1      1.8250000000000099      43.800000000000011      31.025000000000013
    64   1      1.8250000000000099      45.625000000000007      29.200000000000014
    65   1      1.8250000000000099      43.800000000000011      34.675000000000011
    66   1      1.8250000000000099      45.625000000000007      32.850000000000009
    67   1  7.1054273576010019e-15      43.800000000000011      36.500000000000007
    68   1      1.8250000000000099      43.800000000000011      38.325000000000017
    69   1      1.8250000000000099      45.625000000000007      36.500000000000007
    70   1  7.1054273576010019e-15      43.800000000000011      40.150000000000006
    71   1      1.8250000000000099      43.800000000000011      41.975000000000009
    72   1      1.8250000000000099      45.625000000000007      40.150000000000006
    73   1  7.1054273576010019e-15      43.800000000000011      43.800000000000011
    74   1      1.8250000000000099      43.800000000000011      45.625000000000007
    75   1      1.8250000000000099      45.625000000000007      43.800000000000011
    76   1      1.8250000000000099      43.800000000000011       49.27500000000002
    77   1      1.8250000000000099      45.625000000000007       47.45000000000001
    78   1      1.8250000000000099      45.625000000000007      51.100000000000009
    79   1      1.8250000000000099       47.45000000000001      31.025000000000013
    80   1      1.8250000000000099       49.27500000000002      29.200000000000014
    81   1      1.8250000000000099       47.45000000000001      34.675000000000011
    82   1      1.8250000000000099       49.27500000000002      32.850000000000009
    83   1      1.8250000000000099       47.45000000000001      38.325000000000017
    84   1      1.8250000000000099       49.27500000000002      36.500000000000007
    85   1      1.8250000000000099       47.45000000000001      41.975000000000009
    86   1      1.8250000000000099       49.27500000000002      40.150000000000006
    87   1      1.8250000000000099       47.45000000000001      45.625000000000007
    88   1      1.8250000000000099       49.27500000000002      43.800000000000011
    89   1      1.8250000000000099       47.45000000000001       49.27500000000002
    90   1      1.8250000000000099       49.27500000000002       47.45000000000001
    91   1      1.8250000000000099       49.27500000000002      51.100000000000009
    92   1      1.8250000000000099      51.100000000000009      31.025000000000013
    93   1      1.8250000000000099      51.100000000000009      34.675000000000011
    94   1      1.8250000000000099      51.100000000000009      38.325000000000017
    95   1      1.8250000000000099      51.100000000000009      41.975000000000009
    96   1      1.8250000000000099      51.100000000000009      45.625000000000007
    97   1      1.8250000000000099      51.100000000000009       49.27500000000002
    98   1      5.4750000000000085      14.600000000000009      16.425000000000011
    99   1      5.4750000000000085      16.425000000000011      14.600000000000009
   100   1      5.4750000000000085      14.600000000000009      20.075000000000006
   101   1      5.4750000000000085      16.425000000000011      18.250000000000007
   102   1      5.4750000000000085      14.600000000000009      23.725000000000009
   103   1      5.4750000000000085      16.425000000000011      21.900000000000009
   104   1      5.4750000000000085      14.600000000000009      27.375000000000007
   105   1      5.4750000000000085      16.425000000000011      25.550000000000011
   106   1      5.4750000000000085      14.600000000000009      31.025000000000013
   107   1      5.4750000000000085      16.425000000000011      29.200000000000014
   108   1      5.4750000000000085      14.600000000000009      34.675000000000011
   109   1      5.4750000000000085      16.425000000000011      32.850000000000009
   110   1      5.4750000000000085      14.600000000000009      38.325000000000017
   111   1      5.4750000000000085      16.425000000000011      36.500000000000007
   112   1      5.4750000000000085      14.600000000000009      41.975000000000009
   113   1      5.4750000000000085      16.425000000000011      40.150000000000006
   114   1      5.4750000000000085      14.600000000000009      45.625000000000007
   115   1      5.4750000000000085      16.425000000000011      43.800000000000011
   116   1      5.4750000000000085      14.600000000000009       49.27500000000002
   117   1      5.4750000000000085      16.425000000000011       47.45000000000001
   118   1      5.4750000000000085      14.600000000000009      52.925000000000011
   119   1      5.4750000000000085      16.425000000000011      51.100000000000009
   120   1      5.4750000000000085      14.600000000000009      56.575000000000017
   121   1      5.4750000000000085      16.425000000000011      54.750000000000014
   122   1      5.4750000000000085      14.600000000000009      60.225000000000009
   123   1      5.4750000000000085      16.425000000000011      58.400000000000006
   124   1      5.4750000000000085      14.600000000000009      63.875000000000021
   125   1      5.4750000000000085      16.425000000000011      62.050000000000018
   126   1      5.4750000000000085      16.425000000000011      65.700000000000003
   127   1      5.4750000000000085      18.250000000000007      16.425000000000011
   128   1      5.4750000000000085      20.075000000000006      14.600000000000009
   129   1      5.4750000000000085      18.250000000000007      20.075000000000006
   130   1      5.4750000000000085      20.075000000000006      18.250000000000007
   131   1      5.4750000000000085      18.250000000000007      23.725000000000009
   132   1      5.4750000000000085      20.075000000000006      21.900000000000009
   133   1      5.4750000000000085      18.250000000000007      27.375000000000007
   134   1      5.4750000000000085      20.075000000000006      25.550000000000011
   135   1      5.4750000000000085      18.250000000000007      31.025000000000013
   136   1      5.4750000000000085      20.075000000000006      29.200000000000014
   137   1      5.4750000000000085      18.250000000000007      34.675000000000011
   138   1      5.4750000000000085      20.075000000000006      32.850000000000009
   139   1      5.4750000000000085      18.250000000000007      38.325000000000017
   140   1      5.4750000000000085      20.075000000000006      36.500000000000007
   141   1      5.4750000000000085      18.250000000000007      41.975000000000009
   142   1      5.4750000000000085      20.075000000000006      40.150000000000006
   143   1      5.4750000000000085      18.250000000000007      45.625000000000007
   144   1      5.4750000000000085      20.075000000000006      43.800000000000011
   145   1      5.4750000000000085      18.250000000000007       49.27500000000002
   146   1      5.4750000000000085      20.075000000000006       47.45000000000001
   147   1      5.4750000000000085      18.250000000000007      52.925000000000011
   148   1      5.4750000000000085      20.075000000000006      51.100000000000009
   149   1      5.4750000000000085      18.250000000000007      56.575000000000017
   150   1      5.4750000000000085      20.075000000000006      54.750000000000014
   151   1      5.4750000000000085      18.250000000000007      60.225000000000009
   152   1      5.4750000000000085      20.075000000000006      58.400000000000006
   153   1      5.4750000000000085      18.250000000000007      63.875000000000021
   154   1      5.4750000000000085      20.075000000000006      62.050000000000018
   155   1      5.4750000000000085      20.075000000000006      65.700000000000003
   156   1      5.4750000000000085      21.900000000000009      16.425000000000011
   157   1      5.4750000000000085      23.725000000000009      14.600000000000009
   158   1      5.4750000000000085      21.900000000000009      20.075000000000006
   159   1      5.4750000000000085      23.725000000000009      18.250000000000007
   160   1      3.6500000000000061      21.900000000000009      21.900000000000009
   161   1      3.6500000000000061      23.725000000000009      23.725000000000009
   162   1      5.4750000000000085      21.900000000000009      23.725000000000009
   163   1      5.4750000000000085      23.725000000000009      21.900000000000009
   164   1      3.6500000000000061      21.900000000000009      25.550000000000011
   165   1      3.6500000000000061      23.725000000000009      27.375000000000007
   166   1      5.4750000000000085      21.900000000000009      27.375000000000007
   167   1      5.4750000000000085      23.725000000000009      25.550000000000011
   168   1      3.6500000000000061      21.900000000000009      29.200000000000014
   169   1      3.6500000000000061      23.725000000000009      31.025000000000013
   170   1      5.4750000000000085      21.900000000000009      31.025000000000013
   171   1      5.4750000000000085      23.725000000000009      29.200000000000014
   172   1      3.6500000000000061      21.900000000000009      32.850000000000009
   173   1      3.6500000000000061      23.725000000000009      34.675000000000011
   174   1      5.4750000000000085      21.900000000000009      34.675000000000011
   175   1      5.4750000000000085      23.725000000000009      32.850000000000009
   176   1      3.6500000000000061      21.900000000000009      36.500000000000007
   177   1      3.6500000000000061      23.725000000000009      38.325000000000017
   178   1      5.4750000000000085      21.900000000000009      38.325000000000017
   179   1      5.4750000000000085      23.725000000000009      36.500000000000007
   180   1      3.6500000000000061      21.900000000000009      40.150000000000006
   181   1      3.6500000000000061      23.725000000000009      41.975000000000009
   182   1      5.4750000000000085      21.900000000000009      41.975000000000009
   183   1      5.4750000000000085      23.725000000000009      40.150000000000006
   184   1      3.6500000000000061      21.900000000000009      43.800000000000011
   185   1      3.6500000000000061      23.725000000000009      45.625000000000007
   186   1      5.4750000000000085      21.900000000000009      45.625000000000007
   187   1      5.4750000000000085      23.725000000000009      43.800000000000011
   188   1      3.6500000000000061      21.900000000000009       47.45000000000001
   189   1      3.6500000000000061      23.725000000000009       49.27500000000002
   190   1      5.4750000000000085      21.900000000000009       49.27500000000002
   191   1      5.4750000000000085      23.725000000000009       47.45000000000001
   192   1      3.6500000000000061      21.900000000000009      51.100000000000009
   193   1      3.6500000000000061      23.725000000000009      52.925000000000011
   194   1      5.4750000000000085      21.900000000000009      52.925000000000011
   195   1      5.4750000000000085      23.725000000000009      51.100000000000009
   196   1      3.6500000000000061      21.900000000000009      54.750000000000014
   197   1      3.6500000000000061      23.725000000000009      56.575000000000017
   198   1      5.4750000000000085      21.900000000000009      56.575000000000017
   199   1      5.4750000000000085      23.725000000000009      54.750000000000014
   200   1      3.6500000000000061      21.900000000000009      58.400000000000006
   201   1      5.4750000000000085      21.900000000000009      60.225000000000009
   202   1      5.4750000000000085      23.725000000000009      58.400000000000006
   203   1      5.4750000000000085      21.900000000000009      63.875000000000021
   204   1      5.4750000000000085      23.725000000000009      62.050000000000018
   205   1      5.4750000000000085      23.725000000000009      65.700000000000003
   206   1      5.4750000000000085      25.550000000000011      16.425000000000011
   207   1      5.4750000000000085      27.375000000000007      14.600000000000009
   208   1      5.4750000000000085      25.550000000000011      20.075000000000006
   209   1      5.4750000000000085      27.375000000000007      18.250000000000007
   210   1      3.6500000000000061      25.550000000000011      21.900000000000009
   211   1      3.6500000000000061      27.375000000000007      23.725000000000009
   212   1      5.4750000000000085      25.550000000000011      23.725000000000009
   213   1      5.4750000000000085      27.375000000000007      21.900000000000009
   214   1      3.6500000000000061      25.550000000000011      25.550000000000011
   215   1      3.6500000000000061      27.375000000000007      27.375000000000007
   216   1      5.4750000000000085      25.550000000000011      27.375000000000007
   217   1      5.4750000000000085      27.375000000000007      25.550000000000011
   218   1      3.6500000000000061      25.550000000000011      29.200000000000014
   219   1      3.6500000000000061      27.375000000000007      31.025000000000013
   220   1      5.4750000000000085      25.550000000000011      31.025000000000013
   221   1      5.4750000000000085      27.375000000000007      29.200000000000014
   222   1      3.6500000000000061      25.550000000000011      32.850000000000009
   223   1      3.6500000000000061      27.375000000000007      34.675000000000011
   224   1      5.4750000000000085      25.550000000000011      34.675000000000011
   225   1      5.4750000000000085      27.375000000000007      32.850000000000009
   226   1      3.6500000000000061      25.550000000000011      36.500000000000007
   227   1      3.6500000000000061      27.375000000000007      38.325000000000017
   228   1      5.4750000000000085      25.550000000000011      38.325000000000017
   229   1      5.4750000000000085      27.375000000000007      36.500000000000007
   230   1      3.6500000000000061      25.550000000000011      40.150000000000006
   231   1      3.6500000000000061      27.375000000000007      41.975000000000009
   232   1      5.4750000000000085      25.550000000000011      41.975000000000009
   233   1      5.4750000000000085      27.375000000000007      40.150000000000006
   234   1      3.6500000000000061      25.550000000000011      43.800000000000011
   235   1      3.6500000000000061      27.375000000000007      45.625000000000007
   236   1      5.4750000000000085      25.550000000000011      45.625000000000007
   237   1      5.4750000000000085      27.375000000000007      43.800000000000011
   238   1      3.6500000000000061      25.550000000000011       47.45000000000001
   239   1      3.6500000000000061      27.375000000000007       49.27500000000002
   240   1      5.4750000000000085      25.550000000000011       49.27500000000002
   241   1      5.4750000000000085      27.375000000000007       47.45000000000001
   242   1      3.6500000000000061      25.550000000000011      51.100000000000009
   243   1      3.6500000000000061      27.375000000000007      52.925000000000011
   244   1      5.4750000000000085      25.550000000000011      52.925000000000011
   245   1      5.4750000000000085      27.375000000000007      51.100000000000009
   246   1      3.6500000000000061      25.550000000000011      54.750000000000014
   247   1      3.6500000000000061      27.375000000000007      56.575000000000017
   248   1      5.4750000000000085      25.550000000000011      56.575000000000017
   249   1      5.4750000000000085      27.375000000000007      54.750000000000014
   250   1      3.6500000000000061      25.550000000000011      58.400000000000006
   251   1      5.4750000000000085      25.550000000000011      60.225000000000009
   252   1      5.4750000000000085      27.375000000000007      58.400000000000006
   253   1      5.4750000000000085      25.550000000000011      63.875000000000021
   254   1      5.4750000000000085      27.375000000000007      62.050000000000018
   255   1      5.4750000000000085      27.375000000000007      65.700000000000003
   256   1      5.4750000000000085      29.200000000000014      16.425000000000011
   257   1      5.4750000000000085      31.025000000000013      14.600000000000009
   258   1      5.4750000000000085      29.200000000000014      20.075000000000006
   259   1      5.4750000000000085      31.025000000000013      18.250000000000007
   260   1      3.6500000000000061      29.200000000000014      21.900000000000009
   261   1      3.6500000000000061      31.025000000000013      23.725000000000009
   262   1      5.4750000000000085      29.200000000000014      23.725000000000009
   263   1      5.4750000000000085      31.025000000000013      21.900000000000009
   264   1      3.6500000000000061      29.200000000000014      25.550000000000011
   265   1      3.6500000000000061      31.025000000000013      27.375000000000007
   266   1      5.4750000000000085      29.200000000000014      27.375000000000007
   267   1      5.4750000000000085      31.025000000000013      25.550000000000011
   268   1      3.6500000000000061      29.200000000000014      29.200000000000014
   269   1      3.6500000000000061      31.025000000000013      31.025000000000013
   270   1      5.4750000000000085      29.200000000000014      31.025000000000013
   271   1      5.4750000000000085      31.025000000000013      29.200000000000014
   272   1      3.6500000000000061      29.200000000000014      32.850000000000009
   273   1      3.6500000000000061      31.025000000000013      34.675000000000011
   274   1      5.4750000000000085      29.200000000000014      34.675000000000011
   275   1      5.4750000000000085      31.025000000000013      32.850000000000009
   276   1      3.6500000000000061      29.200000000000014      36.500000000000007
   277   1      3.6500000000000061      31.025000000000013      38.325000000000017
   278   1      5.4750000000000085      29.200000000000014      38.325000000000017
   279   1      5.4750000000000085      31.025000000000013      36.500000000000007
   280   1      3.6500000000000061      29.200000000000014      40.150000000000006
   281   1      3.6500000000000061      31.025000000000013      41.975000000000009
   282   1      5.4750000000000085      29.200000000000014      41.975000000000009
   283   1      5.4750000000000085      31.025000000000013      40.150000000000006
   284   1      3.6500000000000061      29.200000000000014      43.800000000000011
   285   1      3.6500000000000061      31.025000000000013      45.625000000000007
   286   1      5.4750000000000085      29.200000000000014      45.625000000000007
   287   1      5.4750000000000085      31.025000000000013      43.800000000000011
   288   1      3.6500000000000061      29.200000000000014       47.45000000000001
   289   1      3.6500000000000061      31.025000000000013       49.27500000000002
   290   1      5.4750000000000085      29.200000000000014       49.27500000000002
   291   1      5.4750000000000085      31.025000000000013       47.45000000000001
   292   1      3.6500000000000061      29.200000000000014      51.100000000000009
   293   1      3.6500000000000061      31.025000000000013      52.925000000000011
   294   1      5.4750000000000085      29.200000000000014      52.925000000000011
   295   1      5.4750000000000085      31.025000000000013      51.100000000000009
   296   1      3.6500000000000061      29.200000000000014      54.750000000000014
   297   1      3.6500000000000061      31.025000000000013      56.575000000000017
   298   1      5.4750000000000085      29.200000000000014      56.575000000000017
   299   1      5.4750000000000085      31.025000000000013      54.750000000000014
   300   1      3.6500000000000061      29.200000000000014      58.400000000000006
   301   1      5.4750000000000085      29.200000000000014      60.225000000000009
   302   1      5.4750000000000085      31.025000000000013      58.400000000000006
   303   1      5.4750000000000085      29.200000000000014      63.875000000000021
   304   1      5.4750000000000085      31.025000000000013      62.050000000000018
   305   1      5.4750000000000085      31.025000000000013      65.700000000000003
   306   1      5.4750000000000085      32.850000000000009      16.425000000000011
   307   1      5.4750000000000085      34.675000000000011      14.600000000000009
   308   1      5.4750000000000085      32.850000000000009      20.075000000000006
   309   1      5.4750000000000085      34.675000000000011      18.250000000000007
   310   1      3.6500000000000061      32.850000000000009      21.900000000000009
   311   1      3.6500000000000061      34.675000000000011      23.725000000000009
   312   1      5.4750000000000085      32.850000000000009      23.725000000000009
   313   1      5.4750000000000085      34.675000000000011      21.900000000000009
   314   1      3.6500000000000061      32.850000000000009      25.550000000000011
   315   1      3.6500000000000061      34.675000000000011      27.375000000000007
   316   1      5.4750000000000085      32.850000000000009      27.375000000000007
   317   1      5.4750000000000085      34.675000000000011      25.550000000000011
   318   1      3.6500000000000061      32.850000000000009      29.200000000000014
   319   1      3.6500000000000061      34.675000000000011      31.025000000000013
   320   1      5.4750000000000085      32.850000000000009      31.025000000000013
   321   1      5.4750000000000085      34.675000000000011      29.200000000000014
   322   1      3.6500000000000061      32.850000000000009      32.850000000000009
   323   1      3.6500000000000061      34.675000000000011      34.675000000000011
   324   1      5.4750000000000085      32.850000000000009      34.675000000000011
   325   1      5.4750000000000085      34.675000000000011      32.850000000000009
   326   1      3.6500000000000061      32.850000000000009      36.500000000000007
   327   1      3.6500000000000061      34.675000000000011      38.325000000000017
   328   1      5.4750000000000085      32.850000000000009      38.325000000000017
   329   1      5.4750000000000085      34.675000000000011      36.500000000000007
   330   1      3.6500000000000061      32.850000000000009      40.150000000000006
   331   1      3.6500000000000061      34.675000000000011      41.975000000000009
   332   1      5.4750000000000085      32.850000000000009      41.975000000000009
   333   1      5.4750000000000085      34.675000000000011      40.150000000000006
   334   1      3.6500000000000061      32.850000000000009      43.800000000000011
   335   1      3.6500000000000061      34.675000000000011      45.625000000000007
   336   1      5.4750000000000085      32.850000000000009      45.625000000000007
   337   1      5.4750000000000085      34.675000000000011      43.800000000000011
   338   1      3.6500000000000061      32.850000000000009       47.45000000000001
   339   1      3.6500000000000061      34.675000000000011       49.27500000000002
   340   1      5.4750000000000085      32.850000000000009       49.27500000000002
   341   1      5.4750000000000085      34.675000000000011       47.45000000000001
   342   1      3.6500000000000061      32.850000000000009      51.100000000000009
   343   1      3.6500000000000061      34.675000000000011      52.925000000000011
   344   1      5.4750000000000085      32.850000000000009      52.925000000000011
   345   1      5.4750000000000085      34.675000000000011      51.100000000000009
   346   1      3.6500000000000061      32.850000000000009      54.750000000000014
   347   1      3.6500000000000061      34.675000000000011      56.575000000000017
   348   1      5.4750000000000085      32.850000000000009      56.575000000000017
   349   1      5.4750000000000085      34.675000000000011      54.750000000000014
   350   1      3.6500000000000061      32.850000000000009      58.400000000000006
   351   1      5.4750000000000085      32.850000000000009      60.225000000000009
   352   1      5.4750000000000085      34.675000000000011      58.400000000000006
   353   1      5.4750000000000085      32.850000000000009      63.875000000000021
   354   1      5.4750000000000085      34.675000000000011      62.050000000000018
   355   1      5.4750000000000085      34.675000000000011      65.700000000000003
   356   1      5.4750000000000085      36.500000000000007      16.425000000000011
   357   1      5.4750000000000085      38.325000000000017      14.600000000000009
   358   1      5.4750000000000085      36.500000000000007      20.075000000000006