model_files/Ni/Ni_30000/Ni_433/data.Ni_433_fcc_30337 (written by ASE) 

30337 	 atoms 
1  atom types
0.0                     112  xlo xhi
0.0                     112  ylo yhi
0.0                     112  zlo zhi


Atoms 

     1   1      1.7599999999999909      54.559999999999981      56.319999999999993
     2   1      1.7599999999999909      56.319999999999993      54.559999999999981
     3   1      111.99999999999999      56.319999999999993      56.319999999999993
     4   1      1.7599999999999909      56.319999999999993      58.079999999999984
     5   1      1.7599999999999909      58.079999999999984      56.319999999999993
     6   1       5.279999999999986      51.039999999999985      56.319999999999993
     7   1      3.5199999999999885      54.559999999999981      54.559999999999981
     8   1       5.279999999999986      52.799999999999983      54.559999999999981
     9   1       5.279999999999986      54.559999999999981      52.799999999999983
    10   1      3.5199999999999885      52.799999999999983      56.319999999999993
    11   1      3.5199999999999885      54.559999999999981      58.079999999999984
    12   1       5.279999999999986      52.799999999999983      58.079999999999984
    13   1       5.279999999999986      54.559999999999981      56.319999999999993
    14   1       5.279999999999986      54.559999999999981      59.839999999999982
    15   1       5.279999999999986      56.319999999999993      51.039999999999985
    16   1      3.5199999999999885      56.319999999999993      52.799999999999983
    17   1      3.5199999999999885      58.079999999999984      54.559999999999981
    18   1       5.279999999999986      56.319999999999993      54.559999999999981
    19   1       5.279999999999986      58.079999999999984      52.799999999999983
    20   1      3.5199999999999885      56.319999999999993      56.319999999999993
    21   1      3.5199999999999885      58.079999999999984      58.079999999999984
    22   1       5.279999999999986      56.319999999999993      58.079999999999984
    23   1       5.279999999999986      58.079999999999984      56.319999999999993
    24   1      3.5199999999999885      56.319999999999993      59.839999999999982
    25   1       5.279999999999986      56.319999999999993      61.599999999999994
    26   1       5.279999999999986      58.079999999999984      59.839999999999982
    27   1       5.279999999999986      59.839999999999982      54.559999999999981
    28   1      3.5199999999999885      59.839999999999982      56.319999999999993
    29   1       5.279999999999986      59.839999999999982      58.079999999999984
    30   1       5.279999999999986      61.599999999999994      56.319999999999993
    31   1      8.7999999999999883      47.519999999999982      56.319999999999993
    32   1      7.0399999999999912      51.039999999999985      54.559999999999981
    33   1      8.7999999999999883       49.27999999999998      54.559999999999981
    34   1      8.7999999999999883      51.039999999999985      52.799999999999983
    35   1      7.0399999999999912       49.27999999999998      56.319999999999993
    36   1      7.0399999999999912      51.039999999999985      58.079999999999984
    37   1      8.7999999999999883       49.27999999999998      58.079999999999984
    38   1      8.7999999999999883      51.039999999999985      56.319999999999993
    39   1      8.7999999999999883      51.039999999999985      59.839999999999982
    40   1      7.0399999999999912      54.559999999999981      51.039999999999985
    41   1      8.7999999999999883      52.799999999999983      51.039999999999985
    42   1      8.7999999999999883      54.559999999999981       49.27999999999998
    43   1      7.0399999999999912      52.799999999999983      52.799999999999983
    44   1      7.0399999999999912      54.559999999999981      54.559999999999981
    45   1      8.7999999999999883      52.799999999999983      54.559999999999981
    46   1      8.7999999999999883      54.559999999999981      52.799999999999983
    47   1      7.0399999999999912      52.799999999999983      56.319999999999993
    48   1      7.0399999999999912      54.559999999999981      58.079999999999984
    49   1      8.7999999999999883      52.799999999999983      58.079999999999984
    50   1      8.7999999999999883      54.559999999999981      56.319999999999993
    51   1      7.0399999999999912      52.799999999999983      59.839999999999982
    52   1      7.0399999999999912      54.559999999999981      61.599999999999994
    53   1      8.7999999999999883      52.799999999999983      61.599999999999994
    54   1      8.7999999999999883      54.559999999999981      59.839999999999982
    55   1      8.7999999999999883      54.559999999999981      63.359999999999978
    56   1      8.7999999999999883      56.319999999999993      47.519999999999982
    57   1      7.0399999999999912      56.319999999999993       49.27999999999998
    58   1      7.0399999999999912      58.079999999999984      51.039999999999985
    59   1      8.7999999999999883      56.319999999999993      51.039999999999985
    60   1      8.7999999999999883      58.079999999999984       49.27999999999998
    61   1      7.0399999999999912      56.319999999999993      52.799999999999983
    62   1      7.0399999999999912      58.079999999999984      54.559999999999981
    63   1      8.7999999999999883      56.319999999999993      54.559999999999981
    64   1      8.7999999999999883      58.079999999999984      52.799999999999983
    65   1      7.0399999999999912      56.319999999999993      56.319999999999993
    66   1      7.0399999999999912      58.079999999999984      58.079999999999984
    67   1      8.7999999999999883      56.319999999999993      58.079999999999984
    68   1      8.7999999999999883      58.079999999999984      56.319999999999993
    69   1      7.0399999999999912      56.319999999999993      59.839999999999982
    70   1      7.0399999999999912      58.079999999999984      61.599999999999994
    71   1      8.7999999999999883      56.319999999999993      61.599999999999994
    72   1      8.7999999999999883      58.079999999999984      59.839999999999982
    73   1      7.0399999999999912      56.319999999999993      63.359999999999978
    74   1      8.7999999999999883      56.319999999999993       65.11999999999999
    75   1      8.7999999999999883      58.079999999999984      63.359999999999978
    76   1      8.7999999999999883      59.839999999999982      51.039999999999985
    77   1      7.0399999999999912      59.839999999999982      52.799999999999983
    78   1      7.0399999999999912      61.599999999999994      54.559999999999981
    79   1      8.7999999999999883      59.839999999999982      54.559999999999981
    80   1      8.7999999999999883      61.599999999999994      52.799999999999983
    81   1      7.0399999999999912      59.839999999999982      56.319999999999993
    82   1      7.0399999999999912      61.599999999999994      58.079999999999984
    83   1      8.7999999999999883      59.839999999999982      58.079999999999984
    84   1      8.7999999999999883      61.599999999999994      56.319999999999993
    85   1      7.0399999999999912      59.839999999999982      59.839999999999982
    86   1      8.7999999999999883      59.839999999999982      61.599999999999994
    87   1      8.7999999999999883      61.599999999999994      59.839999999999982
    88   1      8.7999999999999883      63.359999999999978      54.559999999999981
    89   1      7.0399999999999912      63.359999999999978      56.319999999999993
    90   1      8.7999999999999883      63.359999999999978      58.079999999999984
    91   1      8.7999999999999883       65.11999999999999      56.319999999999993
    92   1      12.319999999999993       40.47999999999999      56.319999999999993
    93   1      10.559999999999986      43.999999999999979      54.559999999999981
    94   1      12.319999999999993      42.239999999999981      54.559999999999981
    95   1      12.319999999999993      43.999999999999979      52.799999999999983
    96   1      10.559999999999986      42.239999999999981      56.319999999999993
    97   1      10.559999999999986      43.999999999999979      58.079999999999984
    98   1      12.319999999999993      42.239999999999981      58.079999999999984
    99   1      12.319999999999993      43.999999999999979      56.319999999999993
   100   1      12.319999999999993      43.999999999999979      59.839999999999982
   101   1      10.559999999999986      47.519999999999982      51.039999999999985
   102   1      12.319999999999993      45.759999999999991      51.039999999999985
   103   1      12.319999999999993      47.519999999999982       49.27999999999998
   104   1      10.559999999999986      45.759999999999991      52.799999999999983
   105   1      10.559999999999986      47.519999999999982      54.559999999999981
   106   1      12.319999999999993      45.759999999999991      54.559999999999981
   107   1      12.319999999999993      47.519999999999982      52.799999999999983
   108   1      10.559999999999986      45.759999999999991      56.319999999999993
   109   1      10.559999999999986      47.519999999999982      58.079999999999984
   110   1      12.319999999999993      45.759999999999991      58.079999999999984
   111   1      12.319999999999993      47.519999999999982      56.319999999999993
   112   1      10.559999999999986      45.759999999999991      59.839999999999982
   113   1      10.559999999999986      47.519999999999982      61.599999999999994
   114   1      12.319999999999993      45.759999999999991      61.599999999999994
   115   1      12.319999999999993      47.519999999999982      59.839999999999982
   116   1      12.319999999999993      47.519999999999982      63.359999999999978
   117   1      10.559999999999986      51.039999999999985      47.519999999999982
   118   1      12.319999999999993       49.27999999999998      47.519999999999982
   119   1      12.319999999999993      51.039999999999985      45.759999999999991
   120   1      10.559999999999986       49.27999999999998       49.27999999999998
   121   1      10.559999999999986      51.039999999999985      51.039999999999985
   122   1      12.319999999999993       49.27999999999998      51.039999999999985
   123   1      12.319999999999993      51.039999999999985       49.27999999999998
   124   1      10.559999999999986       49.27999999999998      52.799999999999983
   125   1      10.559999999999986      51.039999999999985      54.559999999999981
   126   1      12.319999999999993       49.27999999999998      54.559999999999981
   127   1      12.319999999999993      51.039999999999985      52.799999999999983
   128   1      10.559999999999986       49.27999999999998      56.319999999999993
   129   1      10.559999999999986      51.039999999999985      58.079999999999984
   130   1      12.319999999999993       49.27999999999998      58.079999999999984
   131   1      12.319999999999993      51.039999999999985      56.319999999999993
   132   1      10.559999999999986       49.27999999999998      59.839999999999982
   133   1      10.559999999999986      51.039999999999985      61.599999999999994
   134   1      12.319999999999993       49.27999999999998      61.599999999999994
   135   1      12.319999999999993      51.039999999999985      59.839999999999982
   136   1      10.559999999999986       49.27999999999998      63.359999999999978
   137   1      10.559999999999986      51.039999999999985       65.11999999999999
   138   1      12.319999999999993       49.27999999999998       65.11999999999999
   139   1      12.319999999999993      51.039999999999985      63.359999999999978
   140   1      12.319999999999993      51.039999999999985      66.879999999999995
   141   1      10.559999999999986      54.559999999999981      43.999999999999979
   142   1      12.319999999999993      52.799999999999983      43.999999999999979
   143   1      12.319999999999993      54.559999999999981      42.239999999999981
   144   1      10.559999999999986      52.799999999999983      45.759999999999991
   145   1      10.559999999999986      54.559999999999981      47.519999999999982
   146   1      12.319999999999993      52.799999999999983      47.519999999999982
   147   1      12.319999999999993      54.559999999999981      45.759999999999991
   148   1      10.559999999999986      52.799999999999983       49.27999999999998
   149   1      10.559999999999986      54.559999999999981      51.039999999999985
   150   1      12.319999999999993      52.799999999999983      51.039999999999985
   151   1      12.319999999999993      54.559999999999981       49.27999999999998
   152   1      10.559999999999986      52.799999999999983      52.799999999999983
   153   1      10.559999999999986      54.559999999999981      54.559999999999981
   154   1      12.319999999999993      52.799999999999983      54.559999999999981
   155   1      12.319999999999993      54.559999999999981      52.799999999999983
   156   1      10.559999999999986      52.799999999999983      56.319999999999993
   157   1      10.559999999999986      54.559999999999981      58.079999999999984
   158   1      12.319999999999993      52.799999999999983      58.079999999999984
   159   1      12.319999999999993      54.559999999999981      56.319999999999993
   160   1      10.559999999999986      52.799999999999983      59.839999999999982
   161   1      10.559999999999986      54.559999999999981      61.599999999999994
   162   1      12.319999999999993      52.799999999999983      61.599999999999994
   163   1      12.319999999999993      54.559999999999981      59.839999999999982
   164   1      10.559999999999986      52.799999999999983      63.359999999999978
   165   1      10.559999999999986      54.559999999999981       65.11999999999999
   166   1      12.319999999999993      52.799999999999983       65.11999999999999
   167   1      12.319999999999993      54.559999999999981      63.359999999999978
   168   1      10.559999999999986      52.799999999999983      66.879999999999995
   169   1      10.559999999999986      54.559999999999981      68.640000000000001
   170   1      12.319999999999993      52.799999999999983      68.640000000000001
   171   1      12.319999999999993      54.559999999999981      66.879999999999995
   172   1      12.319999999999993      54.559999999999981      70.399999999999991
   173   1      12.319999999999993      56.319999999999993       40.47999999999999
   174   1      10.559999999999986      56.319999999999993      42.239999999999981
   175   1      10.559999999999986      58.079999999999984      43.999999999999979
   176   1      12.319999999999993      56.319999999999993      43.999999999999979
   177   1      12.319999999999993      58.079999999999984      42.239999999999981
   178   1      10.559999999999986      56.319999999999993      45.759999999999991
   179   1      10.559999999999986      58.079999999999984      47.519999999999982
   180   1      12.319999999999993      56.319999999999993      47.519999999999982
   181   1      12.319999999999993      58.079999999999984      45.759999999999991
   182   1      10.559999999999986      56.319999999999993       49.27999999999998
   183   1      10.559999999999986      58.079999999999984      51.039999999999985
   184   1      12.319999999999993      56.319999999999993      51.039999999999985
   185   1      12.319999999999993      58.079999999999984       49.27999999999998
   186   1      10.559999999999986      56.319999999999993      52.799999999999983
   187   1      10.559999999999986      58.079999999999984      54.559999999999981
   188   1      12.319999999999993      56.319999999999993      54.559999999999981
   189   1      12.319999999999993      58.079999999999984      52.799999999999983
   190   1      10.559999999999986      56.319999999999993      56.319999999999993
   191   1      10.559999999999986      58.079999999999984      58.079999999999984
   192   1      12.319999999999993      56.319999999999993      58.079999999999984
   193   1      12.319999999999993      58.079999999999984      56.319999999999993
   194   1      10.559999999999986      56.319999999999993      59.839999999999982
   195   1      10.559999999999986      58.079999999999984      61.599999999999994
   196   1      12.319999999999993      56.319999999999993      61.599999999999994
   197   1      12.319999999999993      58.079999999999984      59.839999999999982
   198   1      10.559999999999986      56.319999999999993      63.359999999999978
   199   1      10.559999999999986      58.079999999999984       65.11999999999999
   200   1      12.319999999999993      56.319999999999993       65.11999999999999
   201   1      12.319999999999993      58.079999999999984      63.359999999999978
   202   1      10.559999999999986      56.319999999999993      66.879999999999995
   203   1      10.559999999999986      58.079999999999984      68.640000000000001
   204   1      12.319999999999993      56.319999999999993      68.640000000000001
   205   1      12.319999999999993      58.079999999999984      66.879999999999995
   206   1      10.559999999999986      56.319999999999993      70.399999999999991
   207   1      12.319999999999993      56.319999999999993      72.159999999999997
   208   1      12.319999999999993      58.079999999999984      70.399999999999991
   209   1      12.319999999999993      59.839999999999982      43.999999999999979
   210   1      10.559999999999986      59.839999999999982      45.759999999999991
   211   1      10.559999999999986      61.599999999999994      47.519999999999982
   212   1      12.319999999999993      59.839999999999982      47.519999999999982
   213   1      12.319999999999993      61.599999999999994      45.759999999999991
   214   1      10.559999999999986      59.839999999999982       49.27999999999998
   215   1      10.559999999999986      61.599999999999994      51.039999999999985
   216   1      12.319999999999993      59.839999999999982      51.039999999999985
   217   1      12.319999999999993      61.599999999999994       49.27999999999998
   218   1      10.559999999999986      59.839999999999982      52.799999999999983
   219   1      10.559999999999986      61.599999999999994      54.559999999999981
   220   1      12.319999999999993      59.839999999999982      54.559999999999981
   221   1      12.319999999999993      61.599999999999994      52.799999999999983
   222   1      10.559999999999986      59.839999999999982      56.319999999999993
   223   1      10.559999999999986      61.599999999999994      58.079999999999984
   224   1      12.319999999999993      59.839999999999982      58.079999999999984
   225   1      12.319999999999993      61.599999999999994      56.319999999999993
   226   1      10.559999999999986      59.839999999999982      59.839999999999982
   227   1      10.559999999999986      61.599999999999994      61.599999999999994
   228   1      12.319999999999993      59.839999999999982      61.599999999999994
   229   1      12.319999999999993      61.599999999999994      59.839999999999982
   230   1      10.559999999999986      59.839999999999982      63.359999999999978
   231   1      10.559999999999986      61.599999999999994       65.11999999999999
   232   1      12.319999999999993      59.839999999999982       65.11999999999999
   233   1      12.319999999999993      61.599999999999994      63.359999999999978
   234   1      10.559999999999986      59.839999999999982      66.879999999999995
   235   1      12.319999999999993      59.839999999999982      68.640000000000001
   236   1      12.319999999999993      61.599999999999994      66.879999999999995
   237   1      12.319999999999993      63.359999999999978      47.519999999999982
   238   1      10.559999999999986      63.359999999999978       49.27999999999998
   239   1      10.559999999999986       65.11999999999999      51.039999999999985
   240   1      12.319999999999993      63.359999999999978      51.039999999999985
   241   1      12.319999999999993       65.11999999999999       49.27999999999998
   242   1      10.559999999999986      63.359999999999978      52.799999999999983
   243   1      10.559999999999986       65.11999999999999      54.559999999999981
   244   1      12.319999999999993      63.359999999999978      54.559999999999981
   245   1      12.319999999999993       65.11999999999999      52.799999999999983
   246   1      10.559999999999986      63.359999999999978      56.319999999999993
   247   1      10.559999999999986       65.11999999999999      58.079999999999984
   248   1      12.319999999999993      63.359999999999978      58.079999999999984
   249   1      12.319999999999993       65.11999999999999      56.319999999999993
   250   1      10.559999999999986      63.359999999999978      59.839999999999982
   251   1      10.559999999999986       65.11999999999999      61.599999999999994
   252   1      12.319999999999993      63.359999999999978      61.599999999999994
   253   1      12.319999999999993       65.11999999999999      59.839999999999982
   254   1      10.559999999999986      63.359999999999978      63.359999999999978
   255   1      12.319999999999993      63.359999999999978       65.11999999999999
   256   1      12.319999999999993       65.11999999999999      63.359999999999978
   257   1      12.319999999999993      66.879999999999995      51.039999999999985
   258   1      10.559999999999986      66.879999999999995      52.799999999999983
   259   1      10.559999999999986      68.640000000000001      54.559999999999981
   260   1      12.319999999999993      66.879999999999995      54.559999999999981
   261   1      12.319999999999993      68.640000000000001      52.799999999999983
   262   1      10.559999999999986      66.879999999999995      56.319999999999993
   263   1      10.559999999999986      68.640000000000001      58.079999999999984
   264   1      12.319999999999993      66.879999999999995      58.079999999999984
   265   1      12.319999999999993      68.640000000000001      56.319999999999993
   266   1      10.559999999999986      66.879999999999995      59.839999999999982
   267   1      12.319999999999993      66.879999999999995      61.599999999999994
   268   1      12.319999999999993      68.640000000000001      59.839999999999982
   269   1      12.319999999999993      70.399999999999991      54.559999999999981
   270   1      10.559999999999986      70.399999999999991      56.319999999999993
   271   1      12.319999999999993      70.399999999999991      58.079999999999984
   272   1      12.319999999999993      72.159999999999997      56.319999999999993
   273   1      15.839999999999987       36.95999999999998      56.319999999999993
   274   1      14.079999999999991       40.47999999999999      54.559999999999981
   275   1      15.839999999999987      38.719999999999992      54.559999999999981
   276   1      15.839999999999987       40.47999999999999      52.799999999999983
   277   1      14.079999999999991      38.719999999999992      56.319999999999993
   278   1      14.079999999999991       40.47999999999999      58.079999999999984
   279   1      15.839999999999987      38.719999999999992      58.079999999999984
   280   1      15.839999999999987       40.47999999999999      56.319999999999993
   281   1      15.839999999999987       40.47999999999999      59.839999999999982
   282   1      14.079999999999991      43.999999999999979      51.039999999999985
   283   1      15.839999999999987      42.239999999999981      51.039999999999985
   284   1      15.839999999999987      43.999999999999979       49.27999999999998
   285   1      14.079999999999991      42.239999999999981      52.799999999999983
   286   1      14.079999999999991      43.999999999999979      54.559999999999981
   287   1      15.839999999999987      42.239999999999981      54.559999999999981
   288   1      15.839999999999987      43.999999999999979      52.799999999999983
   289   1      14.079999999999991      42.239999999999981      56.319999999999993
   290   1      14.079999999999991      43.999999999999979      58.079999999999984
   291   1      15.839999999999987      42.239999999999981      58.079999999999984
   292   1      15.839999999999987      43.999999999999979      56.319999999999993
   293   1      14.079999999999991      42.239999999999981      59.839999999999982
   294   1      14.079999999999991      43.999999999999979      61.599999999999994
   295   1      15.839999999999987      42.239999999999981      61.599999999999994
   296   1      15.839999999999987      43.999999999999979      59.839999999999982
   297   1      15.839999999999987      43.999999999999979      63.359999999999978
   298   1      14.079999999999991      47.519999999999982      47.519999999999982
   299   1      15.839999999999987      45.759999999999991      47.519999999999982
   300   1      15.839999999999987      47.519999999999982      45.759999999999991
   301   1      14.079999999999991      45.759999999999991       49.27999999999998
   302   1      14.079999999999991      47.519999999999982      51.039999999999985
   303   1      15.839999999999987      45.759999999999991      51.039999999999985
   304   1      15.839999999999987      47.519999999999982       49.27999999999998
   305   1      14.079999999999991      45.759999999999991      52.799999999999983
   306   1      14.079999999999991      47.519999999999982      54.559999999999981
   307   1      15.839999999999987      45.759999999999991      54.559999999999981
   308   1      15.839999999999987      47.519999999999982      52.799999999999983
   309   1      14.079999999999991      45.759999999999991      56.319999999999993
   310   1      14.079999999999991      47.519999999999982      58.079999999999984
   311   1      15.839999999999987      45.759999999999991      58.079999999999984
   312   1      15.839999999999987      47.519999999999982      56.319999999999993
   313   1      14.079999999999991      45.759999999999991      59.839999999999982
   314   1      14.079999999999991      47.519999999999982      61.599999999999994
   315   1      15.839999999999987      45.759999999999991      61.599999999999994
   316   1      15.839999999999987      47.519999999999982      59.839999999999982
   317   1      14.079999999999991      45.759999999999991      63.359999999999978
   318   1      14.079999999999991      47.519999999999982       65.11999999999999
   319   1      15.839999999999987      45.759999999999991       65.11999999999999
   320   1      15.839999999999987      47.519999999999982      63.359999999999978
   321   1      15.839999999999987      47.519999999999982      66.879999999999995
   322   1      14.079999999999991      51.039999999999985      43.999999999999979
   323   1      15.839999999999987       49.27999999999998      43.999999999999979
   324   1      15.839999999999987      51.039999999999985      42.239999999999981
   325   1      14.079999999999991       49.27999999999998      45.759999999999991
   326   1      14.079999999999991      51.039999999999985      47.519999999999982
   327   1      15.839999999999987       49.27999999999998      47.519999999999982
   328   1      15.839999999999987      51.039999999999985      45.759999999999991
   329   1      14.079999999999991       49.27999999999998       49.27999999999998
   330   1      14.079999999999991      51.039999999999985      51.039999999999985
   331   1      15.839999999999987       49.27999999999998      51.039999999999985
   332   1      15.839999999999987      51.039999999999985       49.27999999999998
   333   1      14.079999999999991       49.27999999999998      52.799999999999983
   334   1      14.079999999999991      51.039999999999985      54.559999999999981
   335   1      15.839999999999987       49.27999999999998      54.559999999999981
   336   1      15.839999999999987      51.039999999999985      52.799999999999983
   337   1      14.079999999999991       49.27999999999998      56.319999999999993
   338   1      14.079999999999991      51.039999999999985      58.079999999999984
   339   1      15.839999999999987       49.27999999999998      58.079999999999984
   340   1      15.839999999999987      51.039999999999985      56.319999999999993
   341   1      14.079999999999991       49.27999999999998      59.839999999999982
   342   1      14.079999999999991      51.039999999999985      61.599999999999994
   343   1      15.839999999999987       49.27999999999998      61.599999999999994
   344   1      15.839999999999987      51.039999999999985      59.839999999999982
   345   1      14.079999999999991       49.27999999999998      63.359999999999978
   346   1      14.079999999999991      51.039999999999985       65.11999999999999
   347   1      15.839999999999987       49.27999999999998       65.11999999999999
   348   1      15.839999999999987      51.039999999999985      63.359999999999978
   349   1      14.079999999999991       49.27999999999998      66.879999999999995
   350   1      14.079999999999991      51.039999999999985      68.640000000000001
   351   1      15.839999999999987       49.27999999999998      68.640000000000001
   352   1      15.839999999999987      51.039999999999985      66.879999999999995
   353   1      15.839999999999987      51.039999999999985      70.399999999999991
   354   1      14.079999999999991      54.559999999999981       40.47999999999999
   355   1      15.839999999999987      52.799999999999983       40.47999999999999
   356   1      15.839999999999987      54.559999999999981      38.719999999999992
   357   1      14.079999999999991      52.799999999999983      42.239999999999981
   358   1      14.079999999999991      54.559999999999981      43.999999999999979