model_files/PtNi/PtNi_30000/PtNi_541/PtNi_541_fcc_30387_temp.data (written by ASE) 

30387 	 atoms 
2  atom types
0.0                     114  xlo xhi
0.0                     114  ylo yhi
0.0                     114  zlo zhi


Atoms 

     1   1      1.9149999999999991      55.535000000000004      57.449999999999996
     2   1      1.9149999999999991      57.449999999999996      55.535000000000004
     3   1                       0      57.449999999999996      57.449999999999996
     4   1      1.9149999999999991      57.449999999999996      59.364999999999995
     5   1      1.9149999999999991      59.364999999999995      57.449999999999996
     6   1      5.7449999999999966      51.704999999999991      53.619999999999997
     7   1      5.7449999999999966      51.704999999999991      57.449999999999996
     8   1      5.7449999999999966      51.704999999999991      61.279999999999994
     9   1      5.7449999999999966      53.619999999999997      51.704999999999991
    10   1      3.8299999999999983      53.619999999999997      53.619999999999997
    11   1      3.8299999999999983      55.535000000000004      55.535000000000004
    12   1      5.7449999999999966      53.619999999999997      55.535000000000004
    13   1      5.7449999999999966      55.535000000000004      53.619999999999997
    14   1      3.8299999999999983      53.619999999999997      57.449999999999996
    15   1      3.8299999999999983      55.535000000000004      59.364999999999995
    16   1      5.7449999999999966      53.619999999999997      59.364999999999995
    17   1      5.7449999999999966      55.535000000000004      57.449999999999996
    18   1      3.8299999999999983      53.619999999999997      61.279999999999994
    19   1      5.7449999999999966      53.619999999999997      63.194999999999993
    20   1      5.7449999999999966      55.535000000000004      61.279999999999994
    21   1      5.7449999999999966      57.449999999999996      51.704999999999991
    22   1      3.8299999999999983      57.449999999999996      53.619999999999997
    23   1      3.8299999999999983      59.364999999999995      55.535000000000004
    24   1      5.7449999999999966      57.449999999999996      55.535000000000004
    25   1      5.7449999999999966      59.364999999999995      53.619999999999997
    26   1      3.8299999999999983      57.449999999999996      57.449999999999996
    27   1      3.8299999999999983      59.364999999999995      59.364999999999995
    28   1      5.7449999999999966      57.449999999999996      59.364999999999995
    29   1      5.7449999999999966      59.364999999999995      57.449999999999996
    30   1      3.8299999999999983      57.449999999999996      61.279999999999994
    31   1      5.7449999999999966      57.449999999999996      63.194999999999993
    32   1      5.7449999999999966      59.364999999999995      61.279999999999994
    33   1      5.7449999999999966      61.279999999999994      51.704999999999991
    34   1      3.8299999999999983      61.279999999999994      53.619999999999997
    35   1      5.7449999999999966      61.279999999999994      55.535000000000004
    36   1      5.7449999999999966      63.194999999999993      53.619999999999997
    37   1      3.8299999999999983      61.279999999999994      57.449999999999996
    38   1      5.7449999999999966      61.279999999999994      59.364999999999995
    39   1      5.7449999999999966      63.194999999999993      57.449999999999996
    40   1      3.8299999999999983      61.279999999999994      61.279999999999994
    41   1      5.7449999999999966      61.279999999999994      63.194999999999993
    42   1      5.7449999999999966      63.194999999999993      61.279999999999994
    43   1      9.5750000000000028                  47.875      49.789999999999992
    44   1      9.5750000000000028      45.960000000000001      55.535000000000004
    45   1      9.5750000000000028                  47.875      53.619999999999997
    46   1      9.5750000000000028      45.960000000000001      59.364999999999995
    47   1      9.5750000000000028                  47.875      57.449999999999996
    48   1      9.5750000000000028                  47.875      61.279999999999994
    49   1      9.5750000000000028                  47.875      65.109999999999999
    50   1      9.5750000000000028      49.789999999999992                  47.875
    51   1      7.6599999999999966      49.789999999999992      49.789999999999992
    52   1      7.6599999999999966      51.704999999999991      51.704999999999991
    53   1      9.5750000000000028      49.789999999999992      51.704999999999991
    54   1      9.5750000000000028      51.704999999999991      49.789999999999992
    55   1      7.6599999999999966      49.789999999999992      53.619999999999997
    56   1      7.6599999999999966      51.704999999999991      55.535000000000004
    57   1      9.5750000000000028      49.789999999999992      55.535000000000004
    58   1      9.5750000000000028      51.704999999999991      53.619999999999997
    59   1      7.6599999999999966      49.789999999999992      57.449999999999996
    60   1      7.6599999999999966      51.704999999999991      59.364999999999995
    61   1      9.5750000000000028      49.789999999999992      59.364999999999995
    62   1      9.5750000000000028      51.704999999999991      57.449999999999996
    63   1      7.6599999999999966      49.789999999999992      61.279999999999994
    64   1      7.6599999999999966      51.704999999999991      63.194999999999993
    65   1      9.5750000000000028      49.789999999999992      63.194999999999993
    66   1      9.5750000000000028      51.704999999999991      61.279999999999994
    67   1      7.6599999999999966      49.789999999999992      65.109999999999999
    68   1      9.5750000000000028      49.789999999999992      67.024999999999991
    69   1      9.5750000000000028      51.704999999999991      65.109999999999999
    70   1      9.5750000000000028      53.619999999999997                  47.875
    71   1      9.5750000000000028      55.535000000000004      45.960000000000001
    72   1      7.6599999999999966      53.619999999999997      49.789999999999992
    73   1      7.6599999999999966      55.535000000000004      51.704999999999991
    74   1      9.5750000000000028      53.619999999999997      51.704999999999991
    75   1      9.5750000000000028      55.535000000000004      49.789999999999992
    76   1      7.6599999999999966      53.619999999999997      53.619999999999997
    77   1      7.6599999999999966      55.535000000000004      55.535000000000004
    78   1      9.5750000000000028      53.619999999999997      55.535000000000004
    79   1      9.5750000000000028      55.535000000000004      53.619999999999997
    80   1      7.6599999999999966      53.619999999999997      57.449999999999996
    81   1      7.6599999999999966      55.535000000000004      59.364999999999995
    82   1      9.5750000000000028      53.619999999999997      59.364999999999995
    83   1      9.5750000000000028      55.535000000000004      57.449999999999996
    84   1      7.6599999999999966      53.619999999999997      61.279999999999994
    85   1      7.6599999999999966      55.535000000000004      63.194999999999993
    86   1      9.5750000000000028      53.619999999999997      63.194999999999993
    87   1      9.5750000000000028      55.535000000000004      61.279999999999994
    88   1      7.6599999999999966      53.619999999999997      65.109999999999999
    89   1      9.5750000000000028      53.619999999999997      67.024999999999991
    90   1      9.5750000000000028      55.535000000000004      65.109999999999999
    91   1      9.5750000000000028      55.535000000000004      68.939999999999998
    92   1      9.5750000000000028      57.449999999999996                  47.875
    93   1      9.5750000000000028      59.364999999999995      45.960000000000001
    94   1      7.6599999999999966      57.449999999999996      49.789999999999992
    95   1      7.6599999999999966      59.364999999999995      51.704999999999991
    96   1      9.5750000000000028      57.449999999999996      51.704999999999991
    97   1      9.5750000000000028      59.364999999999995      49.789999999999992
    98   1      7.6599999999999966      57.449999999999996      53.619999999999997
    99   1      7.6599999999999966      59.364999999999995      55.535000000000004
   100   1      9.5750000000000028      57.449999999999996      55.535000000000004
   101   1      9.5750000000000028      59.364999999999995      53.619999999999997
   102   1      7.6599999999999966      57.449999999999996      57.449999999999996
   103   1      7.6599999999999966      59.364999999999995      59.364999999999995
   104   1      9.5750000000000028      57.449999999999996      59.364999999999995
   105   1      9.5750000000000028      59.364999999999995      57.449999999999996
   106   1      7.6599999999999966      57.449999999999996      61.279999999999994
   107   1      7.6599999999999966      59.364999999999995      63.194999999999993
   108   1      9.5750000000000028      57.449999999999996      63.194999999999993
   109   1      9.5750000000000028      59.364999999999995      61.279999999999994
   110   1      7.6599999999999966      57.449999999999996      65.109999999999999
   111   1      9.5750000000000028      57.449999999999996      67.024999999999991
   112   1      9.5750000000000028      59.364999999999995      65.109999999999999
   113   1      9.5750000000000028      59.364999999999995      68.939999999999998
   114   1      9.5750000000000028      61.279999999999994                  47.875
   115   1      7.6599999999999966      61.279999999999994      49.789999999999992
   116   1      7.6599999999999966      63.194999999999993      51.704999999999991
   117   1      9.5750000000000028      61.279999999999994      51.704999999999991
   118   1      9.5750000000000028      63.194999999999993      49.789999999999992
   119   1      7.6599999999999966      61.279999999999994      53.619999999999997
   120   1      7.6599999999999966      63.194999999999993      55.535000000000004
   121   1      9.5750000000000028      61.279999999999994      55.535000000000004
   122   1      9.5750000000000028      63.194999999999993      53.619999999999997
   123   1      7.6599999999999966      61.279999999999994      57.449999999999996
   124   1      7.6599999999999966      63.194999999999993      59.364999999999995
   125   1      9.5750000000000028      61.279999999999994      59.364999999999995
   126   1      9.5750000000000028      63.194999999999993      57.449999999999996
   127   1      7.6599999999999966      61.279999999999994      61.279999999999994
   128   1      7.6599999999999966      63.194999999999993      63.194999999999993
   129   1      9.5750000000000028      61.279999999999994      63.194999999999993
   130   1      9.5750000000000028      63.194999999999993      61.279999999999994
   131   1      7.6599999999999966      61.279999999999994      65.109999999999999
   132   1      9.5750000000000028      61.279999999999994      67.024999999999991
   133   1      9.5750000000000028      63.194999999999993      65.109999999999999
   134   1      9.5750000000000028      65.109999999999999                  47.875
   135   1      7.6599999999999966      65.109999999999999      49.789999999999992
   136   1      9.5750000000000028      65.109999999999999      51.704999999999991
   137   1      9.5750000000000028      67.024999999999991      49.789999999999992
   138   1      7.6599999999999966      65.109999999999999      53.619999999999997
   139   1      9.5750000000000028      65.109999999999999      55.535000000000004
   140   1      9.5750000000000028      67.024999999999991      53.619999999999997
   141   1      7.6599999999999966      65.109999999999999      57.449999999999996
   142   1      9.5750000000000028      65.109999999999999      59.364999999999995
   143   1      9.5750000000000028      67.024999999999991      57.449999999999996
   144   1      7.6599999999999966      65.109999999999999      61.279999999999994
   145   1      9.5750000000000028      65.109999999999999      63.194999999999993
   146   1      9.5750000000000028      67.024999999999991      61.279999999999994
   147   1      7.6599999999999966      65.109999999999999      65.109999999999999
   148   1      9.5750000000000028      65.109999999999999      67.024999999999991
   149   1      9.5750000000000028      67.024999999999991      65.109999999999999
   150   1      9.5750000000000028      68.939999999999998      55.535000000000004
   151   1      9.5750000000000028      68.939999999999998      59.364999999999995
   152   1      13.404999999999999      44.045000000000002      45.960000000000001
   153   1      13.404999999999999      42.130000000000003      51.704999999999991
   154   1      13.404999999999999      44.045000000000002      49.789999999999992
   155   1      11.490000000000002      44.045000000000002      55.535000000000004
   156   1      13.404999999999999      42.130000000000003      55.535000000000004
   157   1      13.404999999999999      44.045000000000002      53.619999999999997
   158   1      11.490000000000002      44.045000000000002      59.364999999999995
   159   1      13.404999999999999      42.130000000000003      59.364999999999995
   160   1      13.404999999999999      44.045000000000002      57.449999999999996
   161   1      13.404999999999999      42.130000000000003      63.194999999999993
   162   1      13.404999999999999      44.045000000000002      61.279999999999994
   163   1      13.404999999999999      44.045000000000002      65.109999999999999
   164   1      13.404999999999999      44.045000000000002      68.939999999999998
   165   1      13.404999999999999      45.960000000000001      44.045000000000002
   166   1      11.490000000000002      45.960000000000001      45.960000000000001
   167   1      11.490000000000002                  47.875                  47.875
   168   1      13.404999999999999      45.960000000000001                  47.875
   169   1      13.404999999999999                  47.875      45.960000000000001
   170   1      11.490000000000002      45.960000000000001      49.789999999999992
   171   1      11.490000000000002                  47.875      51.704999999999991
   172   1      13.404999999999999      45.960000000000001      51.704999999999991
   173   1      13.404999999999999                  47.875      49.789999999999992
   174   1      11.490000000000002      45.960000000000001      53.619999999999997
   175   1      11.490000000000002                  47.875      55.535000000000004
   176   1      13.404999999999999      45.960000000000001      55.535000000000004
   177   1      13.404999999999999                  47.875      53.619999999999997
   178   1      11.490000000000002      45.960000000000001      57.449999999999996
   179   1      11.490000000000002                  47.875      59.364999999999995
   180   1      13.404999999999999      45.960000000000001      59.364999999999995
   181   1      13.404999999999999                  47.875      57.449999999999996
   182   1      11.490000000000002      45.960000000000001      61.279999999999994
   183   1      11.490000000000002                  47.875      63.194999999999993
   184   1      13.404999999999999      45.960000000000001      63.194999999999993
   185   1      13.404999999999999                  47.875      61.279999999999994
   186   1      11.490000000000002      45.960000000000001      65.109999999999999
   187   1      11.490000000000002                  47.875      67.024999999999991
   188   1      13.404999999999999      45.960000000000001      67.024999999999991
   189   1      13.404999999999999                  47.875      65.109999999999999
   190   1      11.490000000000002      45.960000000000001      68.939999999999998
   191   1      13.404999999999999      45.960000000000001       70.85499999999999
   192   1      13.404999999999999                  47.875      68.939999999999998
   193   1      13.404999999999999      49.789999999999992      44.045000000000002
   194   1      13.404999999999999      51.704999999999991      42.130000000000003
   195   1      11.490000000000002      49.789999999999992      45.960000000000001
   196   1      11.490000000000002      51.704999999999991                  47.875
   197   1      13.404999999999999      49.789999999999992                  47.875
   198   1      13.404999999999999      51.704999999999991      45.960000000000001
   199   1      11.490000000000002      49.789999999999992      49.789999999999992
   200   1      11.490000000000002      51.704999999999991      51.704999999999991
   201   1      13.404999999999999      49.789999999999992      51.704999999999991
   202   1      13.404999999999999      51.704999999999991      49.789999999999992
   203   1      11.490000000000002      49.789999999999992      53.619999999999997
   204   1      11.490000000000002      51.704999999999991      55.535000000000004
   205   1      13.404999999999999      49.789999999999992      55.535000000000004
   206   1      13.404999999999999      51.704999999999991      53.619999999999997
   207   1      11.490000000000002      49.789999999999992      57.449999999999996
   208   1      11.490000000000002      51.704999999999991      59.364999999999995
   209   1      13.404999999999999      49.789999999999992      59.364999999999995
   210   1      13.404999999999999      51.704999999999991      57.449999999999996
   211   1      11.490000000000002      49.789999999999992      61.279999999999994
   212   1      11.490000000000002      51.704999999999991      63.194999999999993
   213   1      13.404999999999999      49.789999999999992      63.194999999999993
   214   1      13.404999999999999      51.704999999999991      61.279999999999994
   215   1      11.490000000000002      49.789999999999992      65.109999999999999
   216   1      11.490000000000002      51.704999999999991      67.024999999999991
   217   1      13.404999999999999      49.789999999999992      67.024999999999991
   218   1      13.404999999999999      51.704999999999991      65.109999999999999
   219   1      11.490000000000002      49.789999999999992      68.939999999999998
   220   1      13.404999999999999      49.789999999999992       70.85499999999999
   221   1      13.404999999999999      51.704999999999991      68.939999999999998
   222   1      13.404999999999999      51.704999999999991      72.769999999999996
   223   1      11.490000000000002      55.535000000000004      44.045000000000002
   224   1      13.404999999999999      53.619999999999997      44.045000000000002
   225   1      13.404999999999999      55.535000000000004      42.130000000000003
   226   1      11.490000000000002      53.619999999999997      45.960000000000001
   227   1      11.490000000000002      55.535000000000004                  47.875
   228   1      13.404999999999999      53.619999999999997                  47.875
   229   1      13.404999999999999      55.535000000000004      45.960000000000001
   230   1      11.490000000000002      53.619999999999997      49.789999999999992
   231   1      11.490000000000002      55.535000000000004      51.704999999999991
   232   1      13.404999999999999      53.619999999999997      51.704999999999991
   233   1      13.404999999999999      55.535000000000004      49.789999999999992
   234   1      11.490000000000002      53.619999999999997      53.619999999999997
   235   1      11.490000000000002      55.535000000000004      55.535000000000004
   236   1      13.404999999999999      53.619999999999997      55.535000000000004
   237   1      13.404999999999999      55.535000000000004      53.619999999999997
   238   1      11.490000000000002      53.619999999999997      57.449999999999996
   239   1      11.490000000000002      55.535000000000004      59.364999999999995
   240   1      13.404999999999999      53.619999999999997      59.364999999999995
   241   1      13.404999999999999      55.535000000000004      57.449999999999996
   242   1      11.490000000000002      53.619999999999997      61.279999999999994
   243   1      11.490000000000002      55.535000000000004      63.194999999999993
   244   1      13.404999999999999      53.619999999999997      63.194999999999993
   245   1      13.404999999999999      55.535000000000004      61.279999999999994
   246   1      11.490000000000002      53.619999999999997      65.109999999999999
   247   1      11.490000000000002      55.535000000000004      67.024999999999991
   248   1      13.404999999999999      53.619999999999997      67.024999999999991
   249   1      13.404999999999999      55.535000000000004      65.109999999999999
   250   1      11.490000000000002      53.619999999999997      68.939999999999998
   251   1      11.490000000000002      55.535000000000004       70.85499999999999
   252   1      13.404999999999999      53.619999999999997       70.85499999999999
   253   1      13.404999999999999      55.535000000000004      68.939999999999998
   254   1      13.404999999999999      55.535000000000004      72.769999999999996
   255   1      11.490000000000002      59.364999999999995      44.045000000000002
   256   1      13.404999999999999      57.449999999999996      44.045000000000002
   257   1      13.404999999999999      59.364999999999995      42.130000000000003
   258   1      11.490000000000002      57.449999999999996      45.960000000000001
   259   1      11.490000000000002      59.364999999999995                  47.875
   260   1      13.404999999999999      57.449999999999996                  47.875
   261   1      13.404999999999999      59.364999999999995      45.960000000000001
   262   1      11.490000000000002      57.449999999999996      49.789999999999992
   263   1      11.490000000000002      59.364999999999995      51.704999999999991
   264   1      13.404999999999999      57.449999999999996      51.704999999999991
   265   1      13.404999999999999      59.364999999999995      49.789999999999992
   266   1      11.490000000000002      57.449999999999996      53.619999999999997
   267   1      11.490000000000002      59.364999999999995      55.535000000000004
   268   1      13.404999999999999      57.449999999999996      55.535000000000004
   269   1      13.404999999999999      59.364999999999995      53.619999999999997
   270   1      11.490000000000002      57.449999999999996      57.449999999999996
   271   1      11.490000000000002      59.364999999999995      59.364999999999995
   272   1      13.404999999999999      57.449999999999996      59.364999999999995
   273   1      13.404999999999999      59.364999999999995      57.449999999999996
   274   1      11.490000000000002      57.449999999999996      61.279999999999994
   275   1      11.490000000000002      59.364999999999995      63.194999999999993
   276   1      13.404999999999999      57.449999999999996      63.194999999999993
   277   1      13.404999999999999      59.364999999999995      61.279999999999994
   278   1      11.490000000000002      57.449999999999996      65.109999999999999
   279   1      11.490000000000002      59.364999999999995      67.024999999999991
   280   1      13.404999999999999      57.449999999999996      67.024999999999991
   281   1      13.404999999999999      59.364999999999995      65.109999999999999
   282   1      11.490000000000002      57.449999999999996      68.939999999999998
   283   1      11.490000000000002      59.364999999999995       70.85499999999999
   284   1      13.404999999999999      57.449999999999996       70.85499999999999
   285   1      13.404999999999999      59.364999999999995      68.939999999999998
   286   1      13.404999999999999      59.364999999999995      72.769999999999996
   287   1      13.404999999999999      61.279999999999994      44.045000000000002
   288   1      13.404999999999999      63.194999999999993      42.130000000000003
   289   1      11.490000000000002      61.279999999999994      45.960000000000001
   290   1      11.490000000000002      63.194999999999993                  47.875
   291   1      13.404999999999999      61.279999999999994                  47.875
   292   1      13.404999999999999      63.194999999999993      45.960000000000001
   293   1      11.490000000000002      61.279999999999994      49.789999999999992
   294   1      11.490000000000002      63.194999999999993      51.704999999999991
   295   1      13.404999999999999      61.279999999999994      51.704999999999991
   296   1      13.404999999999999      63.194999999999993      49.789999999999992
   297   1      11.490000000000002      61.279999999999994      53.619999999999997
   298   1      11.490000000000002      63.194999999999993      55.535000000000004
   299   1      13.404999999999999      61.279999999999994      55.535000000000004
   300   1      13.404999999999999      63.194999999999993      53.619999999999997
   301   1      11.490000000000002      61.279999999999994      57.449999999999996
   302   1      11.490000000000002      63.194999999999993      59.364999999999995
   303   1      13.404999999999999      61.279999999999994      59.364999999999995
   304   1      13.404999999999999      63.194999999999993      57.449999999999996
   305   1      11.490000000000002      61.279999999999994      61.279999999999994
   306   1      11.490000000000002      63.194999999999993      63.194999999999993
   307   1      13.404999999999999      61.279999999999994      63.194999999999993
   308   1      13.404999999999999      63.194999999999993      61.279999999999994
   309   1      11.490000000000002      61.279999999999994      65.109999999999999
   310   1      11.490000000000002      63.194999999999993      67.024999999999991
   311   1      13.404999999999999      61.279999999999994      67.024999999999991
   312   1      13.404999999999999      63.194999999999993      65.109999999999999
   313   1      11.490000000000002      61.279999999999994      68.939999999999998
   314   1      13.404999999999999      61.279999999999994       70.85499999999999
   315   1      13.404999999999999      63.194999999999993      68.939999999999998
   316   1      13.404999999999999      63.194999999999993      72.769999999999996
   317   1      13.404999999999999      65.109999999999999      44.045000000000002
   318   1      11.490000000000002      65.109999999999999      45.960000000000001
   319   1      11.490000000000002      67.024999999999991                  47.875
   320   1      13.404999999999999      65.109999999999999                  47.875
   321   1      13.404999999999999      67.024999999999991      45.960000000000001
   322   1      11.490000000000002      65.109999999999999      49.789999999999992
   323   1      11.490000000000002      67.024999999999991      51.704999999999991
   324   1      13.404999999999999      65.109999999999999      51.704999999999991
   325   1      13.404999999999999      67.024999999999991      49.789999999999992
   326   1      11.490000000000002      65.109999999999999      53.619999999999997
   327   1      11.490000000000002      67.024999999999991      55.535000000000004
   328   1      13.404999999999999      65.109999999999999      55.535000000000004
   329   1      13.404999999999999      67.024999999999991      53.619999999999997
   330   1      11.490000000000002      65.109999999999999      57.449999999999996
   331   1      11.490000000000002      67.024999999999991      59.364999999999995
   332   1      13.404999999999999      65.109999999999999      59.364999999999995
   333   1      13.404999999999999      67.024999999999991      57.449999999999996
   334   1      11.490000000000002      65.109999999999999      61.279999999999994
   335   1      11.490000000000002      67.024999999999991      63.194999999999993
   336   1      13.404999999999999      65.109999999999999      63.194999999999993
   337   1      13.404999999999999      67.024999999999991      61.279999999999994
   338   1      11.490000000000002      65.109999999999999      65.109999999999999
   339   1      11.490000000000002      67.024999999999991      67.024999999999991
   340   1      13.404999999999999      65.109999999999999      67.024999999999991
   341   1      13.404999999999999      67.024999999999991      65.109999999999999
   342   1      11.490000000000002      65.109999999999999      68.939999999999998
   343   1      13.404999999999999      65.109999999999999       70.85499999999999
   344   1      13.404999999999999      67.024999999999991      68.939999999999998
   345   1      13.404999999999999      68.939999999999998      44.045000000000002
   346   1      11.490000000000002      68.939999999999998      45.960000000000001
   347   1      13.404999999999999      68.939999999999998                  47.875
   348   1      13.404999999999999       70.85499999999999      45.960000000000001
   349   1      11.490000000000002      68.939999999999998      49.789999999999992
   350   1      13.404999999999999      68.939999999999998      51.704999999999991
   351   1      13.404999999999999       70.85499999999999      49.789999999999992
   352   1      11.490000000000002      68.939999999999998      53.619999999999997
   353   1      11.490000000000002       70.85499999999999      55.535000000000004
   354   1      13.404999999999999      68.939999999999998      55.535000000000004
   355   1      13.404999999999999       70.85499999999999      53.619999999999997
   356   1      11.490000000000002      68.939999999999998      57.449999999999996
   357   1      11.490000000000002       70.85499999999999      59.364999999999995
   358   1      13.404999999999999      68.939999999999998      59.364999999999995