model_files/Co/Co_3000/Co_531/data.Co_531_hcp_3061 (written by ASE) 

3061 	 atoms 
1  atom types
0.0                      30  xlo xhi
0.0                      30  ylo yhi
0.0                      30  zlo zhi


Atoms 

     1   1      1.2549999999999955      11.294999999999995      15.059999999999993
     2   1      29.999999999999993      13.804999999999993      13.804999999999993
     3   1      1.2549999999999955      12.549999999999994      13.804999999999993
     4   1      1.2549999999999955      13.804999999999993      12.549999999999994
     5   1      29.999999999999993      13.804999999999993      16.314999999999994
     6   1      1.2549999999999955      12.549999999999994      16.314999999999994
     7   1      1.2549999999999955      13.804999999999993      15.059999999999993
     8   1      1.2549999999999955      13.804999999999993      17.569999999999993
     9   1      1.2549999999999955      15.059999999999993      11.294999999999995
    10   1      29.999999999999993      16.314999999999994      13.804999999999993
    11   1      1.2549999999999955      15.059999999999993      13.804999999999993
    12   1      1.2549999999999955      16.314999999999994      12.549999999999994
    13   1      29.999999999999993      15.059999999999993      15.059999999999993
    14   1      29.999999999999993      16.314999999999994      16.314999999999994
    15   1      1.2549999999999955      15.059999999999993      16.314999999999994
    16   1      1.2549999999999955      16.314999999999994      15.059999999999993
    17   1      1.2549999999999955      15.059999999999993      18.824999999999992
    18   1      1.2549999999999955      16.314999999999994      17.569999999999993
    19   1      1.2549999999999955      17.569999999999993      13.804999999999993
    20   1      1.2549999999999955      17.569999999999993      16.314999999999994
    21   1      1.2549999999999955      18.824999999999992      15.059999999999993
    22   1      3.7649999999999935       8.784999999999993      10.039999999999994
    23   1      3.7649999999999935      7.5299999999999931      13.804999999999993
    24   1      3.7649999999999935       8.784999999999993      12.549999999999994
    25   1      3.7649999999999935      7.5299999999999931      16.314999999999994
    26   1      3.7649999999999935       8.784999999999993      15.059999999999993
    27   1      3.7649999999999935       8.784999999999993      17.569999999999993
    28   1      3.7649999999999935       8.784999999999993      20.079999999999991
    29   1      3.7649999999999935      10.039999999999994       8.784999999999993
    30   1      2.5099999999999945      11.294999999999995      11.294999999999995
    31   1      3.7649999999999935      10.039999999999994      11.294999999999995
    32   1      3.7649999999999935      11.294999999999995      10.039999999999994
    33   1      2.5099999999999945      10.039999999999994      12.549999999999994
    34   1      2.5099999999999945      11.294999999999995      13.804999999999993
    35   1      3.7649999999999935      10.039999999999994      13.804999999999993
    36   1      3.7649999999999935      11.294999999999995      12.549999999999994
    37   1      2.5099999999999945      10.039999999999994      15.059999999999993
    38   1      2.5099999999999945      11.294999999999995      16.314999999999994
    39   1      3.7649999999999935      10.039999999999994      16.314999999999994
    40   1      3.7649999999999935      11.294999999999995      15.059999999999993
    41   1      2.5099999999999945      10.039999999999994      17.569999999999993
    42   1      2.5099999999999945      11.294999999999995      18.824999999999992
    43   1      3.7649999999999935      10.039999999999994      18.824999999999992
    44   1      3.7649999999999935      11.294999999999995      17.569999999999993
    45   1      3.7649999999999935      10.039999999999994      21.334999999999987
    46   1      3.7649999999999935      11.294999999999995      20.079999999999991
    47   1      3.7649999999999935      12.549999999999994       8.784999999999993
    48   1      3.7649999999999935      13.804999999999993      7.5299999999999931
    49   1      2.5099999999999945      12.549999999999994      10.039999999999994
    50   1      2.5099999999999945      13.804999999999993      11.294999999999995
    51   1      3.7649999999999935      12.549999999999994      11.294999999999995
    52   1      3.7649999999999935      13.804999999999993      10.039999999999994
    53   1      2.5099999999999945      12.549999999999994      12.549999999999994
    54   1      2.5099999999999945      13.804999999999993      13.804999999999993
    55   1      3.7649999999999935      12.549999999999994      13.804999999999993
    56   1      3.7649999999999935      13.804999999999993      12.549999999999994
    57   1      2.5099999999999945      12.549999999999994      15.059999999999993
    58   1      2.5099999999999945      13.804999999999993      16.314999999999994
    59   1      3.7649999999999935      12.549999999999994      16.314999999999994
    60   1      3.7649999999999935      13.804999999999993      15.059999999999993
    61   1      2.5099999999999945      12.549999999999994      17.569999999999993
    62   1      2.5099999999999945      13.804999999999993      18.824999999999992
    63   1      3.7649999999999935      12.549999999999994      18.824999999999992
    64   1      3.7649999999999935      13.804999999999993      17.569999999999993
    65   1      2.5099999999999945      12.549999999999994      20.079999999999991
    66   1      3.7649999999999935      12.549999999999994      21.334999999999987
    67   1      3.7649999999999935      13.804999999999993      20.079999999999991
    68   1      3.7649999999999935      13.804999999999993      22.589999999999993
    69   1      3.7649999999999935      15.059999999999993       8.784999999999993
    70   1      3.7649999999999935      16.314999999999994      7.5299999999999931
    71   1      2.5099999999999945      15.059999999999993      10.039999999999994
    72   1      2.5099999999999945      16.314999999999994      11.294999999999995
    73   1      3.7649999999999935      15.059999999999993      11.294999999999995
    74   1      3.7649999999999935      16.314999999999994      10.039999999999994
    75   1      2.5099999999999945      15.059999999999993      12.549999999999994
    76   1      2.5099999999999945      16.314999999999994      13.804999999999993
    77   1      3.7649999999999935      15.059999999999993      13.804999999999993
    78   1      3.7649999999999935      16.314999999999994      12.549999999999994
    79   1      2.5099999999999945      15.059999999999993      15.059999999999993
    80   1      2.5099999999999945      16.314999999999994      16.314999999999994
    81   1      3.7649999999999935      15.059999999999993      16.314999999999994
    82   1      3.7649999999999935      16.314999999999994      15.059999999999993
    83   1      2.5099999999999945      15.059999999999993      17.569999999999993
    84   1      2.5099999999999945      16.314999999999994      18.824999999999992
    85   1      3.7649999999999935      15.059999999999993      18.824999999999992
    86   1      3.7649999999999935      16.314999999999994      17.569999999999993
    87   1      2.5099999999999945      15.059999999999993      20.079999999999991
    88   1      3.7649999999999935      15.059999999999993      21.334999999999987
    89   1      3.7649999999999935      16.314999999999994      20.079999999999991
    90   1      3.7649999999999935      16.314999999999994      22.589999999999993
    91   1      3.7649999999999935      17.569999999999993       8.784999999999993
    92   1      2.5099999999999945      17.569999999999993      10.039999999999994
    93   1      2.5099999999999945      18.824999999999992      11.294999999999995
    94   1      3.7649999999999935      17.569999999999993      11.294999999999995
    95   1      3.7649999999999935      18.824999999999992      10.039999999999994
    96   1      2.5099999999999945      17.569999999999993      12.549999999999994
    97   1      2.5099999999999945      18.824999999999992      13.804999999999993
    98   1      3.7649999999999935      17.569999999999993      13.804999999999993
    99   1      3.7649999999999935      18.824999999999992      12.549999999999994
   100   1      2.5099999999999945      17.569999999999993      15.059999999999993
   101   1      2.5099999999999945      18.824999999999992      16.314999999999994
   102   1      3.7649999999999935      17.569999999999993      16.314999999999994
   103   1      3.7649999999999935      18.824999999999992      15.059999999999993
   104   1      2.5099999999999945      17.569999999999993      17.569999999999993
   105   1      2.5099999999999945      18.824999999999992      18.824999999999992
   106   1      3.7649999999999935      17.569999999999993      18.824999999999992
   107   1      3.7649999999999935      18.824999999999992      17.569999999999993
   108   1      2.5099999999999945      17.569999999999993      20.079999999999991
   109   1      3.7649999999999935      17.569999999999993      21.334999999999987
   110   1      3.7649999999999935      18.824999999999992      20.079999999999991
   111   1      3.7649999999999935      20.079999999999991       8.784999999999993
   112   1      3.7649999999999935      20.079999999999991      11.294999999999995
   113   1      3.7649999999999935      21.334999999999987      10.039999999999994
   114   1      2.5099999999999945      20.079999999999991      12.549999999999994
   115   1      3.7649999999999935      20.079999999999991      13.804999999999993
   116   1      3.7649999999999935      21.334999999999987      12.549999999999994
   117   1      2.5099999999999945      20.079999999999991      15.059999999999993
   118   1      3.7649999999999935      20.079999999999991      16.314999999999994
   119   1      3.7649999999999935      21.334999999999987      15.059999999999993
   120   1      2.5099999999999945      20.079999999999991      17.569999999999993
   121   1      3.7649999999999935      20.079999999999991      18.824999999999992
   122   1      3.7649999999999935      21.334999999999987      17.569999999999993
   123   1      3.7649999999999935      20.079999999999991      21.334999999999987
   124   1      3.7649999999999935      21.334999999999987      20.079999999999991
   125   1      3.7649999999999935      22.589999999999993      13.804999999999993
   126   1      3.7649999999999935      22.589999999999993      16.314999999999994
   127   1       6.274999999999995       6.274999999999995      7.5299999999999931
   128   1      5.0199999999999942       6.274999999999995      11.294999999999995
   129   1       6.274999999999995      5.0199999999999942      11.294999999999995
   130   1       6.274999999999995       6.274999999999995      10.039999999999994
   131   1      5.0199999999999942       6.274999999999995      13.804999999999993
   132   1       6.274999999999995      5.0199999999999942      13.804999999999993
   133   1       6.274999999999995       6.274999999999995      12.549999999999994
   134   1      5.0199999999999942      5.0199999999999942      15.059999999999993
   135   1      5.0199999999999942       6.274999999999995      16.314999999999994
   136   1       6.274999999999995      5.0199999999999942      16.314999999999994
   137   1       6.274999999999995       6.274999999999995      15.059999999999993
   138   1      5.0199999999999942       6.274999999999995      18.824999999999992
   139   1       6.274999999999995      5.0199999999999942      18.824999999999992
   140   1       6.274999999999995       6.274999999999995      17.569999999999993
   141   1       6.274999999999995       6.274999999999995      20.079999999999991
   142   1       6.274999999999995       6.274999999999995      22.589999999999993
   143   1       6.274999999999995      7.5299999999999931       6.274999999999995
   144   1      5.0199999999999942      7.5299999999999931      7.5299999999999931
   145   1      5.0199999999999942       8.784999999999993       8.784999999999993
   146   1       6.274999999999995      7.5299999999999931       8.784999999999993
   147   1       6.274999999999995       8.784999999999993      7.5299999999999931
   148   1      5.0199999999999942      7.5299999999999931      10.039999999999994
   149   1      5.0199999999999942       8.784999999999993      11.294999999999995
   150   1       6.274999999999995      7.5299999999999931      11.294999999999995
   151   1       6.274999999999995       8.784999999999993      10.039999999999994
   152   1      5.0199999999999942      7.5299999999999931      12.549999999999994
   153   1      5.0199999999999942       8.784999999999993      13.804999999999993
   154   1       6.274999999999995      7.5299999999999931      13.804999999999993
   155   1       6.274999999999995       8.784999999999993      12.549999999999994
   156   1      5.0199999999999942      7.5299999999999931      15.059999999999993
   157   1      5.0199999999999942       8.784999999999993      16.314999999999994
   158   1       6.274999999999995      7.5299999999999931      16.314999999999994
   159   1       6.274999999999995       8.784999999999993      15.059999999999993
   160   1      5.0199999999999942      7.5299999999999931      17.569999999999993
   161   1      5.0199999999999942       8.784999999999993      18.824999999999992
   162   1       6.274999999999995      7.5299999999999931      18.824999999999992
   163   1       6.274999999999995       8.784999999999993      17.569999999999993
   164   1      5.0199999999999942      7.5299999999999931      20.079999999999991
   165   1      5.0199999999999942       8.784999999999993      21.334999999999987
   166   1       6.274999999999995      7.5299999999999931      21.334999999999987
   167   1       6.274999999999995       8.784999999999993      20.079999999999991
   168   1      5.0199999999999942      7.5299999999999931      22.589999999999993
   169   1       6.274999999999995      7.5299999999999931      23.844999999999992
   170   1       6.274999999999995       8.784999999999993      22.589999999999993
   171   1      5.0199999999999942      11.294999999999995       6.274999999999995
   172   1       6.274999999999995      10.039999999999994       6.274999999999995
   173   1       6.274999999999995      11.294999999999995      5.0199999999999942
   174   1      5.0199999999999942      10.039999999999994      7.5299999999999931
   175   1      5.0199999999999942      11.294999999999995       8.784999999999993
   176   1       6.274999999999995      10.039999999999994       8.784999999999993
   177   1       6.274999999999995      11.294999999999995      7.5299999999999931
   178   1      5.0199999999999942      10.039999999999994      10.039999999999994
   179   1      5.0199999999999942      11.294999999999995      11.294999999999995
   180   1       6.274999999999995      10.039999999999994      11.294999999999995
   181   1       6.274999999999995      11.294999999999995      10.039999999999994
   182   1      5.0199999999999942      10.039999999999994      12.549999999999994
   183   1      5.0199999999999942      11.294999999999995      13.804999999999993
   184   1       6.274999999999995      10.039999999999994      13.804999999999993
   185   1       6.274999999999995      11.294999999999995      12.549999999999994
   186   1      5.0199999999999942      10.039999999999994      15.059999999999993
   187   1      5.0199999999999942      11.294999999999995      16.314999999999994
   188   1       6.274999999999995      10.039999999999994      16.314999999999994
   189   1       6.274999999999995      11.294999999999995      15.059999999999993
   190   1      5.0199999999999942      10.039999999999994      17.569999999999993
   191   1      5.0199999999999942      11.294999999999995      18.824999999999992
   192   1       6.274999999999995      10.039999999999994      18.824999999999992
   193   1       6.274999999999995      11.294999999999995      17.569999999999993
   194   1      5.0199999999999942      10.039999999999994      20.079999999999991
   195   1      5.0199999999999942      11.294999999999995      21.334999999999987
   196   1       6.274999999999995      10.039999999999994      21.334999999999987
   197   1       6.274999999999995      11.294999999999995      20.079999999999991
   198   1      5.0199999999999942      10.039999999999994      22.589999999999993
   199   1      5.0199999999999942      11.294999999999995      23.844999999999992
   200   1       6.274999999999995      10.039999999999994      23.844999999999992
   201   1       6.274999999999995      11.294999999999995      22.589999999999993
   202   1       6.274999999999995      11.294999999999995      25.099999999999994
   203   1      5.0199999999999942      13.804999999999993       6.274999999999995
   204   1       6.274999999999995      12.549999999999994       6.274999999999995
   205   1       6.274999999999995      13.804999999999993      5.0199999999999942
   206   1      5.0199999999999942      12.549999999999994      7.5299999999999931
   207   1      5.0199999999999942      13.804999999999993       8.784999999999993
   208   1       6.274999999999995      12.549999999999994       8.784999999999993
   209   1       6.274999999999995      13.804999999999993      7.5299999999999931
   210   1      5.0199999999999942      12.549999999999994      10.039999999999994
   211   1      5.0199999999999942      13.804999999999993      11.294999999999995
   212   1       6.274999999999995      12.549999999999994      11.294999999999995
   213   1       6.274999999999995      13.804999999999993      10.039999999999994
   214   1      5.0199999999999942      12.549999999999994      12.549999999999994
   215   1      5.0199999999999942      13.804999999999993      13.804999999999993
   216   1       6.274999999999995      12.549999999999994      13.804999999999993
   217   1       6.274999999999995      13.804999999999993      12.549999999999994
   218   1      5.0199999999999942      12.549999999999994      15.059999999999993
   219   1      5.0199999999999942      13.804999999999993      16.314999999999994
   220   1       6.274999999999995      12.549999999999994      16.314999999999994
   221   1       6.274999999999995      13.804999999999993      15.059999999999993
   222   1      5.0199999999999942      12.549999999999994      17.569999999999993
   223   1      5.0199999999999942      13.804999999999993      18.824999999999992
   224   1       6.274999999999995      12.549999999999994      18.824999999999992
   225   1       6.274999999999995      13.804999999999993      17.569999999999993
   226   1      5.0199999999999942      12.549999999999994      20.079999999999991
   227   1      5.0199999999999942      13.804999999999993      21.334999999999987
   228   1       6.274999999999995      12.549999999999994      21.334999999999987
   229   1       6.274999999999995      13.804999999999993      20.079999999999991
   230   1      5.0199999999999942      12.549999999999994      22.589999999999993
   231   1      5.0199999999999942      13.804999999999993      23.844999999999992
   232   1       6.274999999999995      12.549999999999994      23.844999999999992
   233   1       6.274999999999995      13.804999999999993      22.589999999999993
   234   1       6.274999999999995      13.804999999999993      25.099999999999994
   235   1      5.0199999999999942      15.059999999999993      5.0199999999999942
   236   1      5.0199999999999942      16.314999999999994       6.274999999999995
   237   1       6.274999999999995      15.059999999999993       6.274999999999995
   238   1       6.274999999999995      16.314999999999994      5.0199999999999942
   239   1      5.0199999999999942      15.059999999999993      7.5299999999999931
   240   1      5.0199999999999942      16.314999999999994       8.784999999999993
   241   1       6.274999999999995      15.059999999999993       8.784999999999993
   242   1       6.274999999999995      16.314999999999994      7.5299999999999931
   243   1      5.0199999999999942      15.059999999999993      10.039999999999994
   244   1      5.0199999999999942      16.314999999999994      11.294999999999995
   245   1       6.274999999999995      15.059999999999993      11.294999999999995
   246   1       6.274999999999995      16.314999999999994      10.039999999999994
   247   1      5.0199999999999942      15.059999999999993      12.549999999999994
   248   1      5.0199999999999942      16.314999999999994      13.804999999999993
   249   1       6.274999999999995      15.059999999999993      13.804999999999993
   250   1       6.274999999999995      16.314999999999994      12.549999999999994
   251   1      5.0199999999999942      15.059999999999993      15.059999999999993
   252   1      5.0199999999999942      16.314999999999994      16.314999999999994
   253   1       6.274999999999995      15.059999999999993      16.314999999999994
   254   1       6.274999999999995      16.314999999999994      15.059999999999993
   255   1      5.0199999999999942      15.059999999999993      17.569999999999993
   256   1      5.0199999999999942      16.314999999999994      18.824999999999992
   257   1       6.274999999999995      15.059999999999993      18.824999999999992
   258   1       6.274999999999995      16.314999999999994      17.569999999999993
   259   1      5.0199999999999942      15.059999999999993      20.079999999999991
   260   1      5.0199999999999942      16.314999999999994      21.334999999999987
   261   1       6.274999999999995      15.059999999999993      21.334999999999987
   262   1       6.274999999999995      16.314999999999994      20.079999999999991
   263   1      5.0199999999999942      15.059999999999993      22.589999999999993
   264   1      5.0199999999999942      16.314999999999994      23.844999999999992
   265   1       6.274999999999995      15.059999999999993      23.844999999999992
   266   1       6.274999999999995      16.314999999999994      22.589999999999993
   267   1      5.0199999999999942      15.059999999999993      25.099999999999994
   268   1       6.274999999999995      16.314999999999994      25.099999999999994
   269   1      5.0199999999999942      18.824999999999992       6.274999999999995
   270   1       6.274999999999995      17.569999999999993       6.274999999999995
   271   1       6.274999999999995      18.824999999999992      5.0199999999999942
   272   1      5.0199999999999942      17.569999999999993      7.5299999999999931
   273   1      5.0199999999999942      18.824999999999992       8.784999999999993
   274   1       6.274999999999995      17.569999999999993       8.784999999999993
   275   1       6.274999999999995      18.824999999999992      7.5299999999999931
   276   1      5.0199999999999942      17.569999999999993      10.039999999999994
   277   1      5.0199999999999942      18.824999999999992      11.294999999999995
   278   1       6.274999999999995      17.569999999999993      11.294999999999995
   279   1       6.274999999999995      18.824999999999992      10.039999999999994
   280   1      5.0199999999999942      17.569999999999993      12.549999999999994
   281   1      5.0199999999999942      18.824999999999992      13.804999999999993
   282   1       6.274999999999995      17.569999999999993      13.804999999999993
   283   1       6.274999999999995      18.824999999999992      12.549999999999994
   284   1      5.0199999999999942      17.569999999999993      15.059999999999993
   285   1      5.0199999999999942      18.824999999999992      16.314999999999994
   286   1       6.274999999999995      17.569999999999993      16.314999999999994
   287   1       6.274999999999995      18.824999999999992      15.059999999999993
   288   1      5.0199999999999942      17.569999999999993      17.569999999999993
   289   1      5.0199999999999942      18.824999999999992      18.824999999999992
   290   1       6.274999999999995      17.569999999999993      18.824999999999992
   291   1       6.274999999999995      18.824999999999992      17.569999999999993
   292   1      5.0199999999999942      17.569999999999993      20.079999999999991
   293   1      5.0199999999999942      18.824999999999992      21.334999999999987
   294   1       6.274999999999995      17.569999999999993      21.334999999999987
   295   1       6.274999999999995      18.824999999999992      20.079999999999991
   296   1      5.0199999999999942      17.569999999999993      22.589999999999993
   297   1      5.0199999999999942      18.824999999999992      23.844999999999992
   298   1       6.274999999999995      17.569999999999993      23.844999999999992
   299   1       6.274999999999995      18.824999999999992      22.589999999999993
   300   1       6.274999999999995      18.824999999999992      25.099999999999994
   301   1       6.274999999999995      20.079999999999991       6.274999999999995
   302   1      5.0199999999999942      20.079999999999991      7.5299999999999931
   303   1      5.0199999999999942      21.334999999999987       8.784999999999993
   304   1       6.274999999999995      20.079999999999991       8.784999999999993
   305   1       6.274999999999995      21.334999999999987      7.5299999999999931
   306   1      5.0199999999999942      20.079999999999991      10.039999999999994
   307   1      5.0199999999999942      21.334999999999987      11.294999999999995
   308   1       6.274999999999995      20.079999999999991      11.294999999999995
   309   1       6.274999999999995      21.334999999999987      10.039999999999994
   310   1      5.0199999999999942      20.079999999999991      12.549999999999994
   311   1      5.0199999999999942      21.334999999999987      13.804999999999993
   312   1       6.274999999999995      20.079999999999991      13.804999999999993
   313   1       6.274999999999995      21.334999999999987      12.549999999999994
   314   1      5.0199999999999942      20.079999999999991      15.059999999999993
   315   1      5.0199999999999942      21.334999999999987      16.314999999999994
   316   1       6.274999999999995      20.079999999999991      16.314999999999994
   317   1       6.274999999999995      21.334999999999987      15.059999999999993
   318   1      5.0199999999999942      20.079999999999991      17.569999999999993
   319   1      5.0199999999999942      21.334999999999987      18.824999999999992
   320   1       6.274999999999995      20.079999999999991      18.824999999999992
   321   1       6.274999999999995      21.334999999999987      17.569999999999993
   322   1      5.0199999999999942      20.079999999999991      20.079999999999991
   323   1      5.0199999999999942      21.334999999999987      21.334999999999987
   324   1       6.274999999999995      20.079999999999991      21.334999999999987
   325   1       6.274999999999995      21.334999999999987      20.079999999999991
   326   1      5.0199999999999942      20.079999999999991      22.589999999999993
   327   1       6.274999999999995      20.079999999999991      23.844999999999992
   328   1       6.274999999999995      21.334999999999987      22.589999999999993
   329   1       6.274999999999995      22.589999999999993       6.274999999999995
   330   1      5.0199999999999942      22.589999999999993      7.5299999999999931
   331   1       6.274999999999995      22.589999999999993       8.784999999999993
   332   1       6.274999999999995      23.844999999999992      7.5299999999999931
   333   1      5.0199999999999942      22.589999999999993      10.039999999999994
   334   1      5.0199999999999942      23.844999999999992      11.294999999999995
   335   1       6.274999999999995      22.589999999999993      11.294999999999995
   336   1       6.274999999999995      23.844999999999992      10.039999999999994
   337   1      5.0199999999999942      22.589999999999993      12.549999999999994
   338   1      5.0199999999999942      23.844999999999992      13.804999999999993
   339   1       6.274999999999995      22.589999999999993      13.804999999999993
   340   1       6.274999999999995      23.844999999999992      12.549999999999994
   341   1      5.0199999999999942      22.589999999999993      15.059999999999993
   342   1      5.0199999999999942      23.844999999999992      16.314999999999994
   343   1       6.274999999999995      22.589999999999993      16.314999999999994
   344   1       6.274999999999995      23.844999999999992      15.059999999999993
   345   1      5.0199999999999942      22.589999999999993      17.569999999999993
   346   1      5.0199999999999942      23.844999999999992      18.824999999999992
   347   1       6.274999999999995      22.589999999999993      18.824999999999992
   348   1       6.274999999999995      23.844999999999992      17.569999999999993
   349   1      5.0199999999999942      22.589999999999993      20.079999999999991
   350   1       6.274999999999995      22.589999999999993      21.334999999999987
   351   1       6.274999999999995      23.844999999999992      20.079999999999991
   352   1      5.0199999999999942      22.589999999999993      22.589999999999993
   353   1       6.274999999999995      22.589999999999993      23.844999999999992
   354   1       6.274999999999995      23.844999999999992      22.589999999999993
   355   1       6.274999999999995      25.099999999999994      11.294999999999995
   356   1       6.274999999999995      25.099999999999994      13.804999999999993
   357   1      5.0199999999999942      25.099999999999994      15.059999999999993
   358   1       6.274999999999995      25.099999999999994      16.314999999999994