model_files/PtFe/PtFe_30000/PtFe_211/PtFe_211_fcc_30069_temp.data (written by ASE) 

30069 	 atoms 
2  atom types
0.0                     107  xlo xhi
0.0                     107  ylo yhi
0.0                     107  zlo zhi


Atoms 

     1   1      1.8799999999999955      50.759999999999998      52.639999999999986
     2   1      1.8799999999999955      52.639999999999986      50.759999999999998
     3   1      106.99999999999999      52.639999999999986      52.639999999999986
     4   1      1.8799999999999955      52.639999999999986      54.519999999999989
     5   1      1.8799999999999955      54.519999999999989      52.639999999999986
     6   1      5.6399999999999935      43.239999999999988      52.639999999999986
     7   1      3.7599999999999976      46.999999999999986      50.759999999999998
     8   1      5.6399999999999935       45.11999999999999      50.759999999999998
     9   1      5.6399999999999935      46.999999999999986      48.879999999999995
    10   1      3.7599999999999976       45.11999999999999      52.639999999999986
    11   1      3.7599999999999976      46.999999999999986      54.519999999999989
    12   1      5.6399999999999935       45.11999999999999      54.519999999999989
    13   1      5.6399999999999935      46.999999999999986      52.639999999999986
    14   1      5.6399999999999935      46.999999999999986      56.399999999999984
    15   1      3.7599999999999976      50.759999999999998      46.999999999999986
    16   1      5.6399999999999935      48.879999999999995      46.999999999999986
    17   1      5.6399999999999935      50.759999999999998       45.11999999999999
    18   1      3.7599999999999976      48.879999999999995      48.879999999999995
    19   1      3.7599999999999976      50.759999999999998      50.759999999999998
    20   1      5.6399999999999935      48.879999999999995      50.759999999999998
    21   1      5.6399999999999935      50.759999999999998      48.879999999999995
    22   1      3.7599999999999976      48.879999999999995      52.639999999999986
    23   1      3.7599999999999976      50.759999999999998      54.519999999999989
    24   1      5.6399999999999935      48.879999999999995      54.519999999999989
    25   1      5.6399999999999935      50.759999999999998      52.639999999999986
    26   1      3.7599999999999976      48.879999999999995      56.399999999999984
    27   1      3.7599999999999976      50.759999999999998      58.279999999999987
    28   1      5.6399999999999935      48.879999999999995      58.279999999999987
    29   1      5.6399999999999935      50.759999999999998      56.399999999999984
    30   1      5.6399999999999935      50.759999999999998      60.159999999999982
    31   1      5.6399999999999935      52.639999999999986      43.239999999999988
    32   1      3.7599999999999976      52.639999999999986       45.11999999999999
    33   1      3.7599999999999976      54.519999999999989      46.999999999999986
    34   1      5.6399999999999935      52.639999999999986      46.999999999999986
    35   1      5.6399999999999935      54.519999999999989       45.11999999999999
    36   1      3.7599999999999976      52.639999999999986      48.879999999999995
    37   1      3.7599999999999976      54.519999999999989      50.759999999999998
    38   1      5.6399999999999935      52.639999999999986      50.759999999999998
    39   1      5.6399999999999935      54.519999999999989      48.879999999999995
    40   1      3.7599999999999976      52.639999999999986      52.639999999999986
    41   1      3.7599999999999976      54.519999999999989      54.519999999999989
    42   1      5.6399999999999935      52.639999999999986      54.519999999999989
    43   1      5.6399999999999935      54.519999999999989      52.639999999999986
    44   1      3.7599999999999976      52.639999999999986      56.399999999999984
    45   1      3.7599999999999976      54.519999999999989      58.279999999999987
    46   1      5.6399999999999935      52.639999999999986      58.279999999999987
    47   1      5.6399999999999935      54.519999999999989      56.399999999999984
    48   1      3.7599999999999976      52.639999999999986      60.159999999999982
    49   1      5.6399999999999935      52.639999999999986      62.039999999999985
    50   1      5.6399999999999935      54.519999999999989      60.159999999999982
    51   1      5.6399999999999935      56.399999999999984      46.999999999999986
    52   1      3.7599999999999976      56.399999999999984      48.879999999999995
    53   1      3.7599999999999976      58.279999999999987      50.759999999999998
    54   1      5.6399999999999935      56.399999999999984      50.759999999999998
    55   1      5.6399999999999935      58.279999999999987      48.879999999999995
    56   1      3.7599999999999976      56.399999999999984      52.639999999999986
    57   1      3.7599999999999976      58.279999999999987      54.519999999999989
    58   1      5.6399999999999935      56.399999999999984      54.519999999999989
    59   1      5.6399999999999935      58.279999999999987      52.639999999999986
    60   1      3.7599999999999976      56.399999999999984      56.399999999999984
    61   1      5.6399999999999935      56.399999999999984      58.279999999999987
    62   1      5.6399999999999935      58.279999999999987      56.399999999999984
    63   1      5.6399999999999935      60.159999999999982      50.759999999999998
    64   1      3.7599999999999976      60.159999999999982      52.639999999999986
    65   1      5.6399999999999935      60.159999999999982      54.519999999999989
    66   1      5.6399999999999935      62.039999999999985      52.639999999999986
    67   1      9.3999999999999986      35.719999999999992      52.639999999999986
    68   1      7.5199999999999951       39.47999999999999      50.759999999999998
    69   1      9.3999999999999986      37.599999999999994      50.759999999999998
    70   1      9.3999999999999986       39.47999999999999      48.879999999999995
    71   1      7.5199999999999951      37.599999999999994      52.639999999999986
    72   1      7.5199999999999951       39.47999999999999      54.519999999999989
    73   1      9.3999999999999986      37.599999999999994      54.519999999999989
    74   1      9.3999999999999986       39.47999999999999      52.639999999999986
    75   1      9.3999999999999986       39.47999999999999      56.399999999999984
    76   1      7.5199999999999951      43.239999999999988      46.999999999999986
    77   1      9.3999999999999986      41.359999999999992      46.999999999999986
    78   1      9.3999999999999986      43.239999999999988       45.11999999999999
    79   1      7.5199999999999951      41.359999999999992      48.879999999999995
    80   1      7.5199999999999951      43.239999999999988      50.759999999999998
    81   1      9.3999999999999986      41.359999999999992      50.759999999999998
    82   1      9.3999999999999986      43.239999999999988      48.879999999999995
    83   1      7.5199999999999951      41.359999999999992      52.639999999999986
    84   1      7.5199999999999951      43.239999999999988      54.519999999999989
    85   1      9.3999999999999986      41.359999999999992      54.519999999999989
    86   1      9.3999999999999986      43.239999999999988      52.639999999999986
    87   1      7.5199999999999951      41.359999999999992      56.399999999999984
    88   1      7.5199999999999951      43.239999999999988      58.279999999999987
    89   1      9.3999999999999986      41.359999999999992      58.279999999999987
    90   1      9.3999999999999986      43.239999999999988      56.399999999999984
    91   1      9.3999999999999986      43.239999999999988      60.159999999999982
    92   1      7.5199999999999951      46.999999999999986      43.239999999999988
    93   1      9.3999999999999986       45.11999999999999      43.239999999999988
    94   1      9.3999999999999986      46.999999999999986      41.359999999999992
    95   1      7.5199999999999951       45.11999999999999       45.11999999999999
    96   1      7.5199999999999951      46.999999999999986      46.999999999999986
    97   1      9.3999999999999986       45.11999999999999      46.999999999999986
    98   1      9.3999999999999986      46.999999999999986       45.11999999999999
    99   1      7.5199999999999951       45.11999999999999      48.879999999999995
   100   1      7.5199999999999951      46.999999999999986      50.759999999999998
   101   1      9.3999999999999986       45.11999999999999      50.759999999999998
   102   1      9.3999999999999986      46.999999999999986      48.879999999999995
   103   1      7.5199999999999951       45.11999999999999      52.639999999999986
   104   1      7.5199999999999951      46.999999999999986      54.519999999999989
   105   1      9.3999999999999986       45.11999999999999      54.519999999999989
   106   1      9.3999999999999986      46.999999999999986      52.639999999999986
   107   1      7.5199999999999951       45.11999999999999      56.399999999999984
   108   1      7.5199999999999951      46.999999999999986      58.279999999999987
   109   1      9.3999999999999986       45.11999999999999      58.279999999999987
   110   1      9.3999999999999986      46.999999999999986      56.399999999999984
   111   1      7.5199999999999951       45.11999999999999      60.159999999999982
   112   1      7.5199999999999951      46.999999999999986      62.039999999999985
   113   1      9.3999999999999986       45.11999999999999      62.039999999999985
   114   1      9.3999999999999986      46.999999999999986      60.159999999999982
   115   1      9.3999999999999986      46.999999999999986       63.91999999999998
   116   1      7.5199999999999951      50.759999999999998       39.47999999999999
   117   1      9.3999999999999986      48.879999999999995       39.47999999999999
   118   1      9.3999999999999986      50.759999999999998      37.599999999999994
   119   1      7.5199999999999951      48.879999999999995      41.359999999999992
   120   1      7.5199999999999951      50.759999999999998      43.239999999999988
   121   1      9.3999999999999986      48.879999999999995      43.239999999999988
   122   1      9.3999999999999986      50.759999999999998      41.359999999999992
   123   1      7.5199999999999951      48.879999999999995       45.11999999999999
   124   1      7.5199999999999951      50.759999999999998      46.999999999999986
   125   1      9.3999999999999986      48.879999999999995      46.999999999999986
   126   1      9.3999999999999986      50.759999999999998       45.11999999999999
   127   1      7.5199999999999951      48.879999999999995      48.879999999999995
   128   1      7.5199999999999951      50.759999999999998      50.759999999999998
   129   1      9.3999999999999986      48.879999999999995      50.759999999999998
   130   1      9.3999999999999986      50.759999999999998      48.879999999999995
   131   1      7.5199999999999951      48.879999999999995      52.639999999999986
   132   1      7.5199999999999951      50.759999999999998      54.519999999999989
   133   1      9.3999999999999986      48.879999999999995      54.519999999999989
   134   1      9.3999999999999986      50.759999999999998      52.639999999999986
   135   1      7.5199999999999951      48.879999999999995      56.399999999999984
   136   1      7.5199999999999951      50.759999999999998      58.279999999999987
   137   1      9.3999999999999986      48.879999999999995      58.279999999999987
   138   1      9.3999999999999986      50.759999999999998      56.399999999999984
   139   1      7.5199999999999951      48.879999999999995      60.159999999999982
   140   1      7.5199999999999951      50.759999999999998      62.039999999999985
   141   1      9.3999999999999986      48.879999999999995      62.039999999999985
   142   1      9.3999999999999986      50.759999999999998      60.159999999999982
   143   1      7.5199999999999951      48.879999999999995       63.91999999999998
   144   1      7.5199999999999951      50.759999999999998      65.799999999999983
   145   1      9.3999999999999986      48.879999999999995      65.799999999999983
   146   1      9.3999999999999986      50.759999999999998       63.91999999999998
   147   1      9.3999999999999986      50.759999999999998      67.679999999999993
   148   1      9.3999999999999986      52.639999999999986      35.719999999999992
   149   1      7.5199999999999951      52.639999999999986      37.599999999999994
   150   1      7.5199999999999951      54.519999999999989       39.47999999999999
   151   1      9.3999999999999986      52.639999999999986       39.47999999999999
   152   1      9.3999999999999986      54.519999999999989      37.599999999999994
   153   1      7.5199999999999951      52.639999999999986      41.359999999999992
   154   1      7.5199999999999951      54.519999999999989      43.239999999999988
   155   1      9.3999999999999986      52.639999999999986      43.239999999999988
   156   1      9.3999999999999986      54.519999999999989      41.359999999999992
   157   1      7.5199999999999951      52.639999999999986       45.11999999999999
   158   1      7.5199999999999951      54.519999999999989      46.999999999999986
   159   1      9.3999999999999986      52.639999999999986      46.999999999999986
   160   1      9.3999999999999986      54.519999999999989       45.11999999999999
   161   1      7.5199999999999951      52.639999999999986      48.879999999999995
   162   1      7.5199999999999951      54.519999999999989      50.759999999999998
   163   1      9.3999999999999986      52.639999999999986      50.759999999999998
   164   1      9.3999999999999986      54.519999999999989      48.879999999999995
   165   1      7.5199999999999951      52.639999999999986      52.639999999999986
   166   1      7.5199999999999951      54.519999999999989      54.519999999999989
   167   1      9.3999999999999986      52.639999999999986      54.519999999999989
   168   1      9.3999999999999986      54.519999999999989      52.639999999999986
   169   1      7.5199999999999951      52.639999999999986      56.399999999999984
   170   1      7.5199999999999951      54.519999999999989      58.279999999999987
   171   1      9.3999999999999986      52.639999999999986      58.279999999999987
   172   1      9.3999999999999986      54.519999999999989      56.399999999999984
   173   1      7.5199999999999951      52.639999999999986      60.159999999999982
   174   1      7.5199999999999951      54.519999999999989      62.039999999999985
   175   1      9.3999999999999986      52.639999999999986      62.039999999999985
   176   1      9.3999999999999986      54.519999999999989      60.159999999999982
   177   1      7.5199999999999951      52.639999999999986       63.91999999999998
   178   1      7.5199999999999951      54.519999999999989      65.799999999999983
   179   1      9.3999999999999986      52.639999999999986      65.799999999999983
   180   1      9.3999999999999986      54.519999999999989       63.91999999999998
   181   1      7.5199999999999951      52.639999999999986      67.679999999999993
   182   1      9.3999999999999986      52.639999999999986      69.559999999999974
   183   1      9.3999999999999986      54.519999999999989      67.679999999999993
   184   1      9.3999999999999986      56.399999999999984       39.47999999999999
   185   1      7.5199999999999951      56.399999999999984      41.359999999999992
   186   1      7.5199999999999951      58.279999999999987      43.239999999999988
   187   1      9.3999999999999986      56.399999999999984      43.239999999999988
   188   1      9.3999999999999986      58.279999999999987      41.359999999999992
   189   1      7.5199999999999951      56.399999999999984       45.11999999999999
   190   1      7.5199999999999951      58.279999999999987      46.999999999999986
   191   1      9.3999999999999986      56.399999999999984      46.999999999999986
   192   1      9.3999999999999986      58.279999999999987       45.11999999999999
   193   1      7.5199999999999951      56.399999999999984      48.879999999999995
   194   1      7.5199999999999951      58.279999999999987      50.759999999999998
   195   1      9.3999999999999986      56.399999999999984      50.759999999999998
   196   1      9.3999999999999986      58.279999999999987      48.879999999999995
   197   1      7.5199999999999951      56.399999999999984      52.639999999999986
   198   1      7.5199999999999951      58.279999999999987      54.519999999999989
   199   1      9.3999999999999986      56.399999999999984      54.519999999999989
   200   1      9.3999999999999986      58.279999999999987      52.639999999999986
   201   1      7.5199999999999951      56.399999999999984      56.399999999999984
   202   1      7.5199999999999951      58.279999999999987      58.279999999999987
   203   1      9.3999999999999986      56.399999999999984      58.279999999999987
   204   1      9.3999999999999986      58.279999999999987      56.399999999999984
   205   1      7.5199999999999951      56.399999999999984      60.159999999999982
   206   1      7.5199999999999951      58.279999999999987      62.039999999999985
   207   1      9.3999999999999986      56.399999999999984      62.039999999999985
   208   1      9.3999999999999986      58.279999999999987      60.159999999999982
   209   1      7.5199999999999951      56.399999999999984       63.91999999999998
   210   1      9.3999999999999986      56.399999999999984      65.799999999999983
   211   1      9.3999999999999986      58.279999999999987       63.91999999999998
   212   1      9.3999999999999986      60.159999999999982      43.239999999999988
   213   1      7.5199999999999951      60.159999999999982       45.11999999999999
   214   1      7.5199999999999951      62.039999999999985      46.999999999999986
   215   1      9.3999999999999986      60.159999999999982      46.999999999999986
   216   1      9.3999999999999986      62.039999999999985       45.11999999999999
   217   1      7.5199999999999951      60.159999999999982      48.879999999999995
   218   1      7.5199999999999951      62.039999999999985      50.759999999999998
   219   1      9.3999999999999986      60.159999999999982      50.759999999999998
   220   1      9.3999999999999986      62.039999999999985      48.879999999999995
   221   1      7.5199999999999951      60.159999999999982      52.639999999999986
   222   1      7.5199999999999951      62.039999999999985      54.519999999999989
   223   1      9.3999999999999986      60.159999999999982      54.519999999999989
   224   1      9.3999999999999986      62.039999999999985      52.639999999999986
   225   1      7.5199999999999951      60.159999999999982      56.399999999999984
   226   1      7.5199999999999951      62.039999999999985      58.279999999999987
   227   1      9.3999999999999986      60.159999999999982      58.279999999999987
   228   1      9.3999999999999986      62.039999999999985      56.399999999999984
   229   1      7.5199999999999951      60.159999999999982      60.159999999999982
   230   1      9.3999999999999986      60.159999999999982      62.039999999999985
   231   1      9.3999999999999986      62.039999999999985      60.159999999999982
   232   1      9.3999999999999986       63.91999999999998      46.999999999999986
   233   1      7.5199999999999951       63.91999999999998      48.879999999999995
   234   1      7.5199999999999951      65.799999999999983      50.759999999999998
   235   1      9.3999999999999986       63.91999999999998      50.759999999999998
   236   1      9.3999999999999986      65.799999999999983      48.879999999999995
   237   1      7.5199999999999951       63.91999999999998      52.639999999999986
   238   1      7.5199999999999951      65.799999999999983      54.519999999999989
   239   1      9.3999999999999986       63.91999999999998      54.519999999999989
   240   1      9.3999999999999986      65.799999999999983      52.639999999999986
   241   1      7.5199999999999951       63.91999999999998      56.399999999999984
   242   1      9.3999999999999986       63.91999999999998      58.279999999999987
   243   1      9.3999999999999986      65.799999999999983      56.399999999999984
   244   1      9.3999999999999986      67.679999999999993      50.759999999999998
   245   1      7.5199999999999951      67.679999999999993      52.639999999999986
   246   1      9.3999999999999986      67.679999999999993      54.519999999999989
   247   1      9.3999999999999986      69.559999999999974      52.639999999999986
   248   1      13.159999999999988      28.199999999999989      52.639999999999986
   249   1      11.279999999999992       31.95999999999999      50.759999999999998
   250   1      13.159999999999988      30.079999999999988      50.759999999999998
   251   1      13.159999999999988       31.95999999999999      48.879999999999995
   252   1      11.279999999999992      30.079999999999988      52.639999999999986
   253   1      11.279999999999992       31.95999999999999      54.519999999999989
   254   1      13.159999999999988      30.079999999999988      54.519999999999989
   255   1      13.159999999999988       31.95999999999999      52.639999999999986
   256   1      13.159999999999988       31.95999999999999      56.399999999999984
   257   1      11.279999999999992      35.719999999999992      46.999999999999986
   258   1      13.159999999999988      33.839999999999982      46.999999999999986
   259   1      13.159999999999988      35.719999999999992       45.11999999999999
   260   1      11.279999999999992      33.839999999999982      48.879999999999995
   261   1      11.279999999999992      35.719999999999992      50.759999999999998
   262   1      13.159999999999988      33.839999999999982      50.759999999999998
   263   1      13.159999999999988      35.719999999999992      48.879999999999995
   264   1      11.279999999999992      33.839999999999982      52.639999999999986
   265   1      11.279999999999992      35.719999999999992      54.519999999999989
   266   1      13.159999999999988      33.839999999999982      54.519999999999989
   267   1      13.159999999999988      35.719999999999992      52.639999999999986
   268   1      11.279999999999992      33.839999999999982      56.399999999999984
   269   1      11.279999999999992      35.719999999999992      58.279999999999987
   270   1      13.159999999999988      33.839999999999982      58.279999999999987
   271   1      13.159999999999988      35.719999999999992      56.399999999999984
   272   1      13.159999999999988      35.719999999999992      60.159999999999982
   273   1      11.279999999999992       39.47999999999999      43.239999999999988
   274   1      13.159999999999988      37.599999999999994      43.239999999999988
   275   1      13.159999999999988       39.47999999999999      41.359999999999992
   276   1      11.279999999999992      37.599999999999994       45.11999999999999
   277   1      11.279999999999992       39.47999999999999      46.999999999999986
   278   1      13.159999999999988      37.599999999999994      46.999999999999986
   279   1      13.159999999999988       39.47999999999999       45.11999999999999
   280   1      11.279999999999992      37.599999999999994      48.879999999999995
   281   1      11.279999999999992       39.47999999999999      50.759999999999998
   282   1      13.159999999999988      37.599999999999994      50.759999999999998
   283   1      13.159999999999988       39.47999999999999      48.879999999999995
   284   1      11.279999999999992      37.599999999999994      52.639999999999986
   285   1      11.279999999999992       39.47999999999999      54.519999999999989
   286   1      13.159999999999988      37.599999999999994      54.519999999999989
   287   1      13.159999999999988       39.47999999999999      52.639999999999986
   288   1      11.279999999999992      37.599999999999994      56.399999999999984
   289   1      11.279999999999992       39.47999999999999      58.279999999999987
   290   1      13.159999999999988      37.599999999999994      58.279999999999987
   291   1      13.159999999999988       39.47999999999999      56.399999999999984
   292   1      11.279999999999992      37.599999999999994      60.159999999999982
   293   1      11.279999999999992       39.47999999999999      62.039999999999985
   294   1      13.159999999999988      37.599999999999994      62.039999999999985
   295   1      13.159999999999988       39.47999999999999      60.159999999999982
   296   1      13.159999999999988       39.47999999999999       63.91999999999998
   297   1      11.279999999999992      43.239999999999988       39.47999999999999
   298   1      13.159999999999988      41.359999999999992       39.47999999999999
   299   1      13.159999999999988      43.239999999999988      37.599999999999994
   300   1      11.279999999999992      41.359999999999992      41.359999999999992
   301   1      11.279999999999992      43.239999999999988      43.239999999999988
   302   1      13.159999999999988      41.359999999999992      43.239999999999988
   303   1      13.159999999999988      43.239999999999988      41.359999999999992
   304   1      11.279999999999992      41.359999999999992       45.11999999999999
   305   1      11.279999999999992      43.239999999999988      46.999999999999986
   306   1      13.159999999999988      41.359999999999992      46.999999999999986
   307   1      13.159999999999988      43.239999999999988       45.11999999999999
   308   1      11.279999999999992      41.359999999999992      48.879999999999995
   309   1      11.279999999999992      43.239999999999988      50.759999999999998
   310   1      13.159999999999988      41.359999999999992      50.759999999999998
   311   1      13.159999999999988      43.239999999999988      48.879999999999995
   312   1      11.279999999999992      41.359999999999992      52.639999999999986
   313   1      11.279999999999992      43.239999999999988      54.519999999999989
   314   1      13.159999999999988      41.359999999999992      54.519999999999989
   315   1      13.159999999999988      43.239999999999988      52.639999999999986
   316   1      11.279999999999992      41.359999999999992      56.399999999999984
   317   1      11.279999999999992      43.239999999999988      58.279999999999987
   318   1      13.159999999999988      41.359999999999992      58.279999999999987
   319   1      13.159999999999988      43.239999999999988      56.399999999999984
   320   1      11.279999999999992      41.359999999999992      60.159999999999982
   321   1      11.279999999999992      43.239999999999988      62.039999999999985
   322   1      13.159999999999988      41.359999999999992      62.039999999999985
   323   1      13.159999999999988      43.239999999999988      60.159999999999982
   324   1      11.279999999999992      41.359999999999992       63.91999999999998
   325   1      11.279999999999992      43.239999999999988      65.799999999999983
   326   1      13.159999999999988      41.359999999999992      65.799999999999983
   327   1      13.159999999999988      43.239999999999988       63.91999999999998
   328   1      13.159999999999988      43.239999999999988      67.679999999999993
   329   1      11.279999999999992      46.999999999999986      35.719999999999992
   330   1      13.159999999999988       45.11999999999999      35.719999999999992
   331   1      13.159999999999988      46.999999999999986      33.839999999999982
   332   1      11.279999999999992       45.11999999999999      37.599999999999994
   333   1      11.279999999999992      46.999999999999986       39.47999999999999
   334   1      13.159999999999988       45.11999999999999       39.47999999999999
   335   1      13.159999999999988      46.999999999999986      37.599999999999994
   336   1      11.279999999999992       45.11999999999999      41.359999999999992
   337   1      11.279999999999992      46.999999999999986      43.239999999999988
   338   1      13.159999999999988       45.11999999999999      43.239999999999988
   339   1      13.159999999999988      46.999999999999986      41.359999999999992
   340   1      11.279999999999992       45.11999999999999       45.11999999999999
   341   1      11.279999999999992      46.999999999999986      46.999999999999986
   342   1      13.159999999999988       45.11999999999999      46.999999999999986
   343   1      13.159999999999988      46.999999999999986       45.11999999999999
   344   1      11.279999999999992       45.11999999999999      48.879999999999995
   345   1      11.279999999999992      46.999999999999986      50.759999999999998
   346   1      13.159999999999988       45.11999999999999      50.759999999999998
   347   1      13.159999999999988      46.999999999999986      48.879999999999995
   348   1      11.279999999999992       45.11999999999999      52.639999999999986
   349   1      11.279999999999992      46.999999999999986      54.519999999999989
   350   1      13.159999999999988       45.11999999999999      54.519999999999989
   351   1      13.159999999999988      46.999999999999986      52.639999999999986
   352   1      11.279999999999992       45.11999999999999      56.399999999999984
   353   1      11.279999999999992      46.999999999999986      58.279999999999987
   354   1      13.159999999999988       45.11999999999999      58.279999999999987
   355   1      13.159999999999988      46.999999999999986      56.399999999999984
   356   1      11.279999999999992       45.11999999999999      60.159999999999982
   357   1      11.279999999999992      46.999999999999986      62.039999999999985
   358   1      13.159999999999988       45.11999999999999      62.039999999999985