model_files/Fe/Fe_30000/Fe_310/data.Fe_310_bcc_30527 (written by ASE) 

30527 	 atoms 
1  atom types
0.0                      66  xlo xhi
0.0                      66  ylo yhi
0.0                      66  zlo zhi


Atoms 

     1   1                       0      30.134999999999998      31.569999999999993
     2   1                       0      31.569999999999993      30.134999999999998
     3   1                       0      30.134999999999998      34.440000000000005
     4   1                       0      31.569999999999993      33.004999999999995
     5   1                       0      31.569999999999993      35.874999999999993
     6   1                       0      33.004999999999995      31.569999999999993
     7   1                       0      34.440000000000005      30.134999999999998
     8   1                       0      33.004999999999995      34.440000000000005
     9   1                       0      34.440000000000005      33.004999999999995
    10   1                       0      34.440000000000005      35.874999999999993
    11   1                       0      35.874999999999993      31.569999999999993
    12   1                       0      35.874999999999993      34.440000000000005
    13   1      2.8699999999999974      21.524999999999995      22.959999999999994
    14   1      2.8699999999999974      22.959999999999994      21.524999999999995
    15   1      2.8699999999999974      21.524999999999995      25.829999999999995
    16   1      2.8699999999999974      22.959999999999994      24.394999999999996
    17   1      2.8699999999999974      21.524999999999995      28.699999999999996
    18   1      2.8699999999999974      22.959999999999994      27.264999999999993
    19   1      2.8699999999999974      21.524999999999995      31.569999999999993
    20   1      2.8699999999999974      22.959999999999994      30.134999999999998
    21   1      2.8699999999999974      21.524999999999995      34.440000000000005
    22   1      2.8699999999999974      22.959999999999994      33.004999999999995
    23   1      2.8699999999999974      21.524999999999995      37.309999999999995
    24   1      2.8699999999999974      22.959999999999994      35.874999999999993
    25   1      2.8699999999999974      21.524999999999995      40.179999999999993
    26   1      2.8699999999999974      22.959999999999994       38.74499999999999
    27   1      2.8699999999999974      21.524999999999995      43.049999999999997
    28   1      2.8699999999999974      22.959999999999994      41.614999999999995
    29   1      2.8699999999999974      22.959999999999994      44.484999999999999
    30   1      2.8699999999999974      24.394999999999996      22.959999999999994
    31   1      2.8699999999999974      25.829999999999995      21.524999999999995
    32   1      1.4349999999999987      25.829999999999995      25.829999999999995
    33   1      2.8699999999999974      24.394999999999996      25.829999999999995
    34   1      2.8699999999999974      25.829999999999995      24.394999999999996
    35   1      1.4349999999999987      25.829999999999995      28.699999999999996
    36   1      2.8699999999999974      24.394999999999996      28.699999999999996
    37   1      2.8699999999999974      25.829999999999995      27.264999999999993
    38   1      1.4349999999999987      25.829999999999995      31.569999999999993
    39   1      2.8699999999999974      24.394999999999996      31.569999999999993
    40   1      2.8699999999999974      25.829999999999995      30.134999999999998
    41   1      1.4349999999999987      25.829999999999995      34.440000000000005
    42   1      2.8699999999999974      24.394999999999996      34.440000000000005
    43   1      2.8699999999999974      25.829999999999995      33.004999999999995
    44   1      1.4349999999999987      25.829999999999995      37.309999999999995
    45   1      2.8699999999999974      24.394999999999996      37.309999999999995
    46   1      2.8699999999999974      25.829999999999995      35.874999999999993
    47   1      1.4349999999999987      25.829999999999995      40.179999999999993
    48   1      2.8699999999999974      24.394999999999996      40.179999999999993
    49   1      2.8699999999999974      25.829999999999995       38.74499999999999
    50   1      2.8699999999999974      24.394999999999996      43.049999999999997
    51   1      2.8699999999999974      25.829999999999995      41.614999999999995
    52   1      2.8699999999999974      25.829999999999995      44.484999999999999
    53   1      2.8699999999999974      27.264999999999993      22.959999999999994
    54   1      2.8699999999999974      28.699999999999996      21.524999999999995
    55   1      1.4349999999999987      28.699999999999996      25.829999999999995
    56   1      2.8699999999999974      27.264999999999993      25.829999999999995
    57   1      2.8699999999999974      28.699999999999996      24.394999999999996
    58   1      1.4349999999999987      27.264999999999993      27.264999999999993
    59   1      1.4349999999999987      28.699999999999996      28.699999999999996
    60   1      2.8699999999999974      27.264999999999993      28.699999999999996
    61   1      2.8699999999999974      28.699999999999996      27.264999999999993
    62   1      1.4349999999999987      27.264999999999993      30.134999999999998
    63   1      1.4349999999999987      28.699999999999996      31.569999999999993
    64   1      2.8699999999999974      27.264999999999993      31.569999999999993
    65   1      2.8699999999999974      28.699999999999996      30.134999999999998
    66   1      1.4349999999999987      27.264999999999993      33.004999999999995
    67   1      1.4349999999999987      28.699999999999996      34.440000000000005
    68   1      2.8699999999999974      27.264999999999993      34.440000000000005
    69   1      2.8699999999999974      28.699999999999996      33.004999999999995
    70   1      1.4349999999999987      27.264999999999993      35.874999999999993
    71   1      1.4349999999999987      28.699999999999996      37.309999999999995
    72   1      2.8699999999999974      27.264999999999993      37.309999999999995
    73   1      2.8699999999999974      28.699999999999996      35.874999999999993
    74   1      1.4349999999999987      27.264999999999993       38.74499999999999
    75   1      1.4349999999999987      28.699999999999996      40.179999999999993
    76   1      2.8699999999999974      27.264999999999993      40.179999999999993
    77   1      2.8699999999999974      28.699999999999996       38.74499999999999
    78   1      2.8699999999999974      27.264999999999993      43.049999999999997
    79   1      2.8699999999999974      28.699999999999996      41.614999999999995
    80   1      2.8699999999999974      28.699999999999996      44.484999999999999
    81   1      2.8699999999999974      30.134999999999998      22.959999999999994
    82   1      2.8699999999999974      31.569999999999993      21.524999999999995
    83   1      1.4349999999999987      31.569999999999993      25.829999999999995
    84   1      2.8699999999999974      30.134999999999998      25.829999999999995
    85   1      2.8699999999999974      31.569999999999993      24.394999999999996
    86   1      1.4349999999999987      30.134999999999998      27.264999999999993
    87   1      1.4349999999999987      31.569999999999993      28.699999999999996
    88   1      2.8699999999999974      30.134999999999998      28.699999999999996
    89   1      2.8699999999999974      31.569999999999993      27.264999999999993
    90   1      1.4349999999999987      30.134999999999998      30.134999999999998
    91   1      1.4349999999999987      31.569999999999993      31.569999999999993
    92   1      2.8699999999999974      30.134999999999998      31.569999999999993
    93   1      2.8699999999999974      31.569999999999993      30.134999999999998
    94   1      1.4349999999999987      30.134999999999998      33.004999999999995
    95   1      1.4349999999999987      31.569999999999993      34.440000000000005
    96   1      2.8699999999999974      30.134999999999998      34.440000000000005
    97   1      2.8699999999999974      31.569999999999993      33.004999999999995
    98   1      1.4349999999999987      30.134999999999998      35.874999999999993
    99   1      1.4349999999999987      31.569999999999993      37.309999999999995
   100   1      2.8699999999999974      30.134999999999998      37.309999999999995
   101   1      2.8699999999999974      31.569999999999993      35.874999999999993
   102   1      1.4349999999999987      30.134999999999998       38.74499999999999
   103   1      1.4349999999999987      31.569999999999993      40.179999999999993
   104   1      2.8699999999999974      30.134999999999998      40.179999999999993
   105   1      2.8699999999999974      31.569999999999993       38.74499999999999
   106   1      2.8699999999999974      30.134999999999998      43.049999999999997
   107   1      2.8699999999999974      31.569999999999993      41.614999999999995
   108   1      2.8699999999999974      31.569999999999993      44.484999999999999
   109   1      2.8699999999999974      33.004999999999995      22.959999999999994
   110   1      2.8699999999999974      34.440000000000005      21.524999999999995
   111   1      1.4349999999999987      34.440000000000005      25.829999999999995
   112   1      2.8699999999999974      33.004999999999995      25.829999999999995
   113   1      2.8699999999999974      34.440000000000005      24.394999999999996
   114   1      1.4349999999999987      33.004999999999995      27.264999999999993
   115   1      1.4349999999999987      34.440000000000005      28.699999999999996
   116   1      2.8699999999999974      33.004999999999995      28.699999999999996
   117   1      2.8699999999999974      34.440000000000005      27.264999999999993
   118   1      1.4349999999999987      33.004999999999995      30.134999999999998
   119   1      1.4349999999999987      34.440000000000005      31.569999999999993
   120   1      2.8699999999999974      33.004999999999995      31.569999999999993
   121   1      2.8699999999999974      34.440000000000005      30.134999999999998
   122   1      1.4349999999999987      33.004999999999995      33.004999999999995
   123   1      1.4349999999999987      34.440000000000005      34.440000000000005
   124   1      2.8699999999999974      33.004999999999995      34.440000000000005
   125   1      2.8699999999999974      34.440000000000005      33.004999999999995
   126   1      1.4349999999999987      33.004999999999995      35.874999999999993
   127   1      1.4349999999999987      34.440000000000005      37.309999999999995
   128   1      2.8699999999999974      33.004999999999995      37.309999999999995
   129   1      2.8699999999999974      34.440000000000005      35.874999999999993
   130   1      1.4349999999999987      33.004999999999995       38.74499999999999
   131   1      1.4349999999999987      34.440000000000005      40.179999999999993
   132   1      2.8699999999999974      33.004999999999995      40.179999999999993
   133   1      2.8699999999999974      34.440000000000005       38.74499999999999
   134   1      2.8699999999999974      33.004999999999995      43.049999999999997
   135   1      2.8699999999999974      34.440000000000005      41.614999999999995
   136   1      2.8699999999999974      34.440000000000005      44.484999999999999
   137   1      2.8699999999999974      35.874999999999993      22.959999999999994
   138   1      2.8699999999999974      37.309999999999995      21.524999999999995
   139   1      1.4349999999999987      37.309999999999995      25.829999999999995
   140   1      2.8699999999999974      35.874999999999993      25.829999999999995
   141   1      2.8699999999999974      37.309999999999995      24.394999999999996
   142   1      1.4349999999999987      35.874999999999993      27.264999999999993
   143   1      1.4349999999999987      37.309999999999995      28.699999999999996
   144   1      2.8699999999999974      35.874999999999993      28.699999999999996
   145   1      2.8699999999999974      37.309999999999995      27.264999999999993
   146   1      1.4349999999999987      35.874999999999993      30.134999999999998
   147   1      1.4349999999999987      37.309999999999995      31.569999999999993
   148   1      2.8699999999999974      35.874999999999993      31.569999999999993
   149   1      2.8699999999999974      37.309999999999995      30.134999999999998
   150   1      1.4349999999999987      35.874999999999993      33.004999999999995
   151   1      1.4349999999999987      37.309999999999995      34.440000000000005
   152   1      2.8699999999999974      35.874999999999993      34.440000000000005
   153   1      2.8699999999999974      37.309999999999995      33.004999999999995
   154   1      1.4349999999999987      35.874999999999993      35.874999999999993
   155   1      1.4349999999999987      37.309999999999995      37.309999999999995
   156   1      2.8699999999999974      35.874999999999993      37.309999999999995
   157   1      2.8699999999999974      37.309999999999995      35.874999999999993
   158   1      1.4349999999999987      35.874999999999993       38.74499999999999
   159   1      1.4349999999999987      37.309999999999995      40.179999999999993
   160   1      2.8699999999999974      35.874999999999993      40.179999999999993
   161   1      2.8699999999999974      37.309999999999995       38.74499999999999
   162   1      2.8699999999999974      35.874999999999993      43.049999999999997
   163   1      2.8699999999999974      37.309999999999995      41.614999999999995
   164   1      2.8699999999999974      37.309999999999995      44.484999999999999
   165   1      2.8699999999999974       38.74499999999999      22.959999999999994
   166   1      2.8699999999999974      40.179999999999993      21.524999999999995
   167   1      1.4349999999999987      40.179999999999993      25.829999999999995
   168   1      2.8699999999999974       38.74499999999999      25.829999999999995
   169   1      2.8699999999999974      40.179999999999993      24.394999999999996
   170   1      1.4349999999999987       38.74499999999999      27.264999999999993
   171   1      1.4349999999999987      40.179999999999993      28.699999999999996
   172   1      2.8699999999999974       38.74499999999999      28.699999999999996
   173   1      2.8699999999999974      40.179999999999993      27.264999999999993
   174   1      1.4349999999999987       38.74499999999999      30.134999999999998
   175   1      1.4349999999999987      40.179999999999993      31.569999999999993
   176   1      2.8699999999999974       38.74499999999999      31.569999999999993
   177   1      2.8699999999999974      40.179999999999993      30.134999999999998
   178   1      1.4349999999999987       38.74499999999999      33.004999999999995
   179   1      1.4349999999999987      40.179999999999993      34.440000000000005
   180   1      2.8699999999999974       38.74499999999999      34.440000000000005
   181   1      2.8699999999999974      40.179999999999993      33.004999999999995
   182   1      1.4349999999999987       38.74499999999999      35.874999999999993
   183   1      1.4349999999999987      40.179999999999993      37.309999999999995
   184   1      2.8699999999999974       38.74499999999999      37.309999999999995
   185   1      2.8699999999999974      40.179999999999993      35.874999999999993
   186   1      1.4349999999999987       38.74499999999999       38.74499999999999
   187   1      1.4349999999999987      40.179999999999993      40.179999999999993
   188   1      2.8699999999999974       38.74499999999999      40.179999999999993
   189   1      2.8699999999999974      40.179999999999993       38.74499999999999
   190   1      2.8699999999999974       38.74499999999999      43.049999999999997
   191   1      2.8699999999999974      40.179999999999993      41.614999999999995
   192   1      2.8699999999999974      40.179999999999993      44.484999999999999
   193   1      2.8699999999999974      41.614999999999995      22.959999999999994
   194   1      2.8699999999999974      43.049999999999997      21.524999999999995
   195   1      2.8699999999999974      41.614999999999995      25.829999999999995
   196   1      2.8699999999999974      43.049999999999997      24.394999999999996
   197   1      2.8699999999999974      41.614999999999995      28.699999999999996
   198   1      2.8699999999999974      43.049999999999997      27.264999999999993
   199   1      2.8699999999999974      41.614999999999995      31.569999999999993
   200   1      2.8699999999999974      43.049999999999997      30.134999999999998
   201   1      2.8699999999999974      41.614999999999995      34.440000000000005
   202   1      2.8699999999999974      43.049999999999997      33.004999999999995
   203   1      2.8699999999999974      41.614999999999995      37.309999999999995
   204   1      2.8699999999999974      43.049999999999997      35.874999999999993
   205   1      2.8699999999999974      41.614999999999995      40.179999999999993
   206   1      2.8699999999999974      43.049999999999997       38.74499999999999
   207   1      2.8699999999999974      41.614999999999995      43.049999999999997
   208   1      2.8699999999999974      43.049999999999997      41.614999999999995
   209   1      2.8699999999999974      43.049999999999997      44.484999999999999
   210   1      2.8699999999999974      44.484999999999999      22.959999999999994
   211   1      2.8699999999999974      44.484999999999999      25.829999999999995
   212   1      2.8699999999999974      44.484999999999999      28.699999999999996
   213   1      2.8699999999999974      44.484999999999999      31.569999999999993
   214   1      2.8699999999999974      44.484999999999999      34.440000000000005
   215   1      2.8699999999999974      44.484999999999999      37.309999999999995
   216   1      2.8699999999999974      44.484999999999999      40.179999999999993
   217   1      2.8699999999999974      44.484999999999999      43.049999999999997
   218   1      5.7399999999999949      12.914999999999996      14.349999999999996
   219   1      5.7399999999999949      14.349999999999996      12.914999999999996
   220   1      5.7399999999999949      12.914999999999996      17.219999999999999
   221   1      5.7399999999999949      14.349999999999996      15.784999999999997
   222   1      5.7399999999999949      12.914999999999996      20.089999999999993
   223   1      5.7399999999999949      14.349999999999996      18.654999999999994
   224   1      5.7399999999999949      12.914999999999996      22.959999999999994
   225   1      5.7399999999999949      14.349999999999996      21.524999999999995
   226   1      5.7399999999999949      12.914999999999996      25.829999999999995
   227   1      5.7399999999999949      14.349999999999996      24.394999999999996
   228   1      5.7399999999999949      12.914999999999996      28.699999999999996
   229   1      5.7399999999999949      14.349999999999996      27.264999999999993
   230   1      5.7399999999999949      12.914999999999996      31.569999999999993
   231   1      5.7399999999999949      14.349999999999996      30.134999999999998
   232   1      5.7399999999999949      12.914999999999996      34.440000000000005
   233   1      5.7399999999999949      14.349999999999996      33.004999999999995
   234   1      5.7399999999999949      12.914999999999996      37.309999999999995
   235   1      5.7399999999999949      14.349999999999996      35.874999999999993
   236   1      5.7399999999999949      12.914999999999996      40.179999999999993
   237   1      5.7399999999999949      14.349999999999996       38.74499999999999
   238   1      5.7399999999999949      12.914999999999996      43.049999999999997
   239   1      5.7399999999999949      14.349999999999996      41.614999999999995
   240   1      5.7399999999999949      12.914999999999996      45.919999999999995
   241   1      5.7399999999999949      14.349999999999996      44.484999999999999
   242   1      5.7399999999999949      12.914999999999996      48.789999999999992
   243   1      5.7399999999999949      14.349999999999996      47.354999999999997
   244   1      5.7399999999999949      12.914999999999996      51.659999999999997
   245   1      5.7399999999999949      14.349999999999996      50.224999999999994
   246   1      5.7399999999999949      14.349999999999996      53.094999999999992
   247   1      5.7399999999999949      15.784999999999997      14.349999999999996
   248   1      5.7399999999999949      17.219999999999999      12.914999999999996
   249   1      4.3049999999999962      17.219999999999999      17.219999999999999
   250   1      5.7399999999999949      15.784999999999997      17.219999999999999
   251   1      5.7399999999999949      17.219999999999999      15.784999999999997
   252   1      4.3049999999999962      17.219999999999999      20.089999999999993
   253   1      5.7399999999999949      15.784999999999997      20.089999999999993
   254   1      5.7399999999999949      17.219999999999999      18.654999999999994
   255   1      4.3049999999999962      17.219999999999999      22.959999999999994
   256   1      5.7399999999999949      15.784999999999997      22.959999999999994
   257   1      5.7399999999999949      17.219999999999999      21.524999999999995
   258   1      4.3049999999999962      17.219999999999999      25.829999999999995
   259   1      5.7399999999999949      15.784999999999997      25.829999999999995
   260   1      5.7399999999999949      17.219999999999999      24.394999999999996
   261   1      4.3049999999999962      17.219999999999999      28.699999999999996
   262   1      5.7399999999999949      15.784999999999997      28.699999999999996
   263   1      5.7399999999999949      17.219999999999999      27.264999999999993
   264   1      4.3049999999999962      17.219999999999999      31.569999999999993
   265   1      5.7399999999999949      15.784999999999997      31.569999999999993
   266   1      5.7399999999999949      17.219999999999999      30.134999999999998
   267   1      4.3049999999999962      17.219999999999999      34.440000000000005
   268   1      5.7399999999999949      15.784999999999997      34.440000000000005
   269   1      5.7399999999999949      17.219999999999999      33.004999999999995
   270   1      4.3049999999999962      17.219999999999999      37.309999999999995
   271   1      5.7399999999999949      15.784999999999997      37.309999999999995
   272   1      5.7399999999999949      17.219999999999999      35.874999999999993
   273   1      4.3049999999999962      17.219999999999999      40.179999999999993
   274   1      5.7399999999999949      15.784999999999997      40.179999999999993
   275   1      5.7399999999999949      17.219999999999999       38.74499999999999
   276   1      4.3049999999999962      17.219999999999999      43.049999999999997
   277   1      5.7399999999999949      15.784999999999997      43.049999999999997
   278   1      5.7399999999999949      17.219999999999999      41.614999999999995
   279   1      4.3049999999999962      17.219999999999999      45.919999999999995
   280   1      5.7399999999999949      15.784999999999997      45.919999999999995
   281   1      5.7399999999999949      17.219999999999999      44.484999999999999
   282   1      4.3049999999999962      17.219999999999999      48.789999999999992
   283   1      5.7399999999999949      15.784999999999997      48.789999999999992
   284   1      5.7399999999999949      17.219999999999999      47.354999999999997
   285   1      5.7399999999999949      15.784999999999997      51.659999999999997
   286   1      5.7399999999999949      17.219999999999999      50.224999999999994
   287   1      5.7399999999999949      17.219999999999999      53.094999999999992
   288   1      5.7399999999999949      18.654999999999994      14.349999999999996
   289   1      5.7399999999999949      20.089999999999993      12.914999999999996
   290   1      4.3049999999999962      20.089999999999993      17.219999999999999
   291   1      5.7399999999999949      18.654999999999994      17.219999999999999
   292   1      5.7399999999999949      20.089999999999993      15.784999999999997
   293   1      4.3049999999999962      18.654999999999994      18.654999999999994
   294   1      4.3049999999999962      20.089999999999993      20.089999999999993
   295   1      5.7399999999999949      18.654999999999994      20.089999999999993
   296   1      5.7399999999999949      20.089999999999993      18.654999999999994
   297   1      4.3049999999999962      18.654999999999994      21.524999999999995
   298   1      4.3049999999999962      20.089999999999993      22.959999999999994
   299   1      5.7399999999999949      18.654999999999994      22.959999999999994
   300   1      5.7399999999999949      20.089999999999993      21.524999999999995
   301   1      4.3049999999999962      18.654999999999994      24.394999999999996
   302   1      4.3049999999999962      20.089999999999993      25.829999999999995
   303   1      5.7399999999999949      18.654999999999994      25.829999999999995
   304   1      5.7399999999999949      20.089999999999993      24.394999999999996
   305   1      4.3049999999999962      18.654999999999994      27.264999999999993
   306   1      4.3049999999999962      20.089999999999993      28.699999999999996
   307   1      5.7399999999999949      18.654999999999994      28.699999999999996
   308   1      5.7399999999999949      20.089999999999993      27.264999999999993
   309   1      4.3049999999999962      18.654999999999994      30.134999999999998
   310   1      4.3049999999999962      20.089999999999993      31.569999999999993
   311   1      5.7399999999999949      18.654999999999994      31.569999999999993
   312   1      5.7399999999999949      20.089999999999993      30.134999999999998
   313   1      4.3049999999999962      18.654999999999994      33.004999999999995
   314   1      4.3049999999999962      20.089999999999993      34.440000000000005
   315   1      5.7399999999999949      18.654999999999994      34.440000000000005
   316   1      5.7399999999999949      20.089999999999993      33.004999999999995
   317   1      4.3049999999999962      18.654999999999994      35.874999999999993
   318   1      4.3049999999999962      20.089999999999993      37.309999999999995
   319   1      5.7399999999999949      18.654999999999994      37.309999999999995
   320   1      5.7399999999999949      20.089999999999993      35.874999999999993
   321   1      4.3049999999999962      18.654999999999994       38.74499999999999
   322   1      4.3049999999999962      20.089999999999993      40.179999999999993
   323   1      5.7399999999999949      18.654999999999994      40.179999999999993
   324   1      5.7399999999999949      20.089999999999993       38.74499999999999
   325   1      4.3049999999999962      18.654999999999994      41.614999999999995
   326   1      4.3049999999999962      20.089999999999993      43.049999999999997
   327   1      5.7399999999999949      18.654999999999994      43.049999999999997
   328   1      5.7399999999999949      20.089999999999993      41.614999999999995
   329   1      4.3049999999999962      18.654999999999994      44.484999999999999
   330   1      4.3049999999999962      20.089999999999993      45.919999999999995
   331   1      5.7399999999999949      18.654999999999994      45.919999999999995
   332   1      5.7399999999999949      20.089999999999993      44.484999999999999
   333   1      4.3049999999999962      18.654999999999994      47.354999999999997
   334   1      4.3049999999999962      20.089999999999993      48.789999999999992
   335   1      5.7399999999999949      18.654999999999994      48.789999999999992
   336   1      5.7399999999999949      20.089999999999993      47.354999999999997
   337   1      5.7399999999999949      18.654999999999994      51.659999999999997
   338   1      5.7399999999999949      20.089999999999993      50.224999999999994
   339   1      5.7399999999999949      20.089999999999993      53.094999999999992
   340   1      5.7399999999999949      21.524999999999995      14.349999999999996
   341   1      5.7399999999999949      22.959999999999994      12.914999999999996
   342   1      4.3049999999999962      22.959999999999994      17.219999999999999
   343   1      5.7399999999999949      21.524999999999995      17.219999999999999
   344   1      5.7399999999999949      22.959999999999994      15.784999999999997
   345   1      4.3049999999999962      21.524999999999995      18.654999999999994
   346   1      4.3049999999999962      22.959999999999994      20.089999999999993
   347   1      5.7399999999999949      21.524999999999995      20.089999999999993
   348   1      5.7399999999999949      22.959999999999994      18.654999999999994
   349   1      4.3049999999999962      21.524999999999995      21.524999999999995
   350   1      4.3049999999999962      22.959999999999994      22.959999999999994
   351   1      5.7399999999999949      21.524999999999995      22.959999999999994
   352   1      5.7399999999999949      22.959999999999994      21.524999999999995
   353   1      4.3049999999999962      21.524999999999995      24.394999999999996
   354   1      4.3049999999999962      22.959999999999994      25.829999999999995
   355   1      5.7399999999999949      21.524999999999995      25.829999999999995
   356   1      5.7399999999999949      22.959999999999994      24.394999999999996
   357   1      4.3049999999999962      21.524999999999995      27.264999999999993
   358   1      4.3049999999999962      22.959999999999994      28.699999999999996