model_files/NiCoCrFeMn/NiCoCrFeMn_30000/NiCoCrFeMn_410/NiCoCrFeMn_410_fcc_29755_temp.data (written by ASE) 

29755 	 atoms 
5  atom types
0.0                      81  xlo xhi
0.0                      81  ylo yhi
0.0                      81  zlo zhi


Atoms 

     1   1      1.7974999999999994      28.760000000000005      30.557500000000005
     2   1      1.7974999999999994      30.557500000000005      28.760000000000005
     3   1      1.7974999999999994      28.760000000000005      34.152500000000003
     4   1      1.7974999999999994      30.557500000000005      32.355000000000004
     5   1      1.7974999999999994      28.760000000000005      37.747499999999995
     6   1      1.7974999999999994      30.557500000000005      35.949999999999996
     7   1      1.7974999999999994      28.760000000000005      41.342500000000001
     8   1      1.7974999999999994      30.557500000000005      39.544999999999995
     9   1      1.7974999999999994      28.760000000000005                 44.9375
    10   1      1.7974999999999994      30.557500000000005      43.140000000000001
    11   1      1.7974999999999994      28.760000000000005      48.532500000000006
    12   1      1.7974999999999994      30.557500000000005      46.734999999999999
    13   1      1.7974999999999994      30.557500000000005      50.329999999999998
    14   1      1.7974999999999994      32.355000000000004      30.557500000000005
    15   1      1.7974999999999994      34.152500000000003      28.760000000000005
    16   1      1.7974999999999994      32.355000000000004      34.152500000000003
    17   1      1.7974999999999994      34.152500000000003      32.355000000000004
    18   1      1.7974999999999994      32.355000000000004      37.747499999999995
    19   1      1.7974999999999994      34.152500000000003      35.949999999999996
    20   1      1.7974999999999994      32.355000000000004      41.342500000000001
    21   1      1.7974999999999994      34.152500000000003      39.544999999999995
    22   1      1.7974999999999994      32.355000000000004                 44.9375
    23   1      1.7974999999999994      34.152500000000003      43.140000000000001
    24   1      1.7974999999999994      32.355000000000004      48.532500000000006
    25   1      1.7974999999999994      34.152500000000003      46.734999999999999
    26   1      1.7974999999999994      34.152500000000003      50.329999999999998
    27   1      1.7974999999999994      35.949999999999996      30.557500000000005
    28   1      1.7974999999999994      37.747499999999995      28.760000000000005
    29   1      1.7974999999999994      35.949999999999996      34.152500000000003
    30   1      1.7974999999999994      37.747499999999995      32.355000000000004
    31   1                       0      35.949999999999996      35.949999999999996
    32   1                       0      37.747499999999995      37.747499999999995
    33   1      1.7974999999999994      35.949999999999996      37.747499999999995
    34   1      1.7974999999999994      37.747499999999995      35.949999999999996
    35   1                       0      35.949999999999996      39.544999999999995
    36   1                       0      37.747499999999995      41.342500000000001
    37   1      1.7974999999999994      35.949999999999996      41.342500000000001
    38   1      1.7974999999999994      37.747499999999995      39.544999999999995
    39   1                       0      35.949999999999996      43.140000000000001
    40   1      1.7974999999999994      35.949999999999996                 44.9375
    41   1      1.7974999999999994      37.747499999999995      43.140000000000001
    42   1      1.7974999999999994      35.949999999999996      48.532500000000006
    43   1      1.7974999999999994      37.747499999999995      46.734999999999999
    44   1      1.7974999999999994      37.747499999999995      50.329999999999998
    45   1      1.7974999999999994      39.544999999999995      30.557500000000005
    46   1      1.7974999999999994      41.342500000000001      28.760000000000005
    47   1      1.7974999999999994      39.544999999999995      34.152500000000003
    48   1      1.7974999999999994      41.342500000000001      32.355000000000004
    49   1                       0      39.544999999999995      35.949999999999996
    50   1                       0      41.342500000000001      37.747499999999995
    51   1      1.7974999999999994      39.544999999999995      37.747499999999995
    52   1      1.7974999999999994      41.342500000000001      35.949999999999996
    53   1                       0      39.544999999999995      39.544999999999995
    54   1                       0      41.342500000000001      41.342500000000001
    55   1      1.7974999999999994      39.544999999999995      41.342500000000001
    56   1      1.7974999999999994      41.342500000000001      39.544999999999995
    57   1                       0      39.544999999999995      43.140000000000001
    58   1      1.7974999999999994      39.544999999999995                 44.9375
    59   1      1.7974999999999994      41.342500000000001      43.140000000000001
    60   1      1.7974999999999994      39.544999999999995      48.532500000000006
    61   1      1.7974999999999994      41.342500000000001      46.734999999999999
    62   1      1.7974999999999994      41.342500000000001      50.329999999999998
    63   1      1.7974999999999994      43.140000000000001      30.557500000000005
    64   1      1.7974999999999994                 44.9375      28.760000000000005
    65   1      1.7974999999999994      43.140000000000001      34.152500000000003
    66   1      1.7974999999999994                 44.9375      32.355000000000004
    67   1                       0      43.140000000000001      35.949999999999996
    68   1      1.7974999999999994      43.140000000000001      37.747499999999995
    69   1      1.7974999999999994                 44.9375      35.949999999999996
    70   1                       0      43.140000000000001      39.544999999999995
    71   1      1.7974999999999994      43.140000000000001      41.342500000000001
    72   1      1.7974999999999994                 44.9375      39.544999999999995
    73   1                       0      43.140000000000001      43.140000000000001
    74   1      1.7974999999999994      43.140000000000001                 44.9375
    75   1      1.7974999999999994                 44.9375      43.140000000000001
    76   1      1.7974999999999994      43.140000000000001      48.532500000000006
    77   1      1.7974999999999994                 44.9375      46.734999999999999
    78   1      1.7974999999999994                 44.9375      50.329999999999998
    79   1      1.7974999999999994      46.734999999999999      30.557500000000005
    80   1      1.7974999999999994      48.532500000000006      28.760000000000005
    81   1      1.7974999999999994      46.734999999999999      34.152500000000003
    82   1      1.7974999999999994      48.532500000000006      32.355000000000004
    83   1      1.7974999999999994      46.734999999999999      37.747499999999995
    84   1      1.7974999999999994      48.532500000000006      35.949999999999996
    85   1      1.7974999999999994      46.734999999999999      41.342500000000001
    86   1      1.7974999999999994      48.532500000000006      39.544999999999995
    87   1      1.7974999999999994      46.734999999999999                 44.9375
    88   1      1.7974999999999994      48.532500000000006      43.140000000000001
    89   1      1.7974999999999994      46.734999999999999      48.532500000000006
    90   1      1.7974999999999994      48.532500000000006      46.734999999999999
    91   1      1.7974999999999994      48.532500000000006      50.329999999999998
    92   1      1.7974999999999994      50.329999999999998      30.557500000000005
    93   1      1.7974999999999994      50.329999999999998      34.152500000000003
    94   1      1.7974999999999994      50.329999999999998      37.747499999999995
    95   1      1.7974999999999994      50.329999999999998      41.342500000000001
    96   1      1.7974999999999994      50.329999999999998                 44.9375
    97   1      1.7974999999999994      50.329999999999998      48.532500000000006
    98   1      5.3924999999999983      14.380000000000003      16.177500000000002
    99   1      5.3924999999999983      16.177500000000002      14.380000000000003
   100   1      5.3924999999999983      14.380000000000003      19.772499999999997
   101   1      5.3924999999999983      16.177500000000002      17.974999999999998
   102   1      5.3924999999999983      14.380000000000003                 23.3675
   103   1      5.3924999999999983      16.177500000000002                   21.57
   104   1      5.3924999999999983      14.380000000000003      26.962499999999999
   105   1      5.3924999999999983      16.177500000000002      25.164999999999999
   106   1      5.3924999999999983      14.380000000000003      30.557500000000005
   107   1      5.3924999999999983      16.177500000000002      28.760000000000005
   108   1      5.3924999999999983      14.380000000000003      34.152500000000003
   109   1      5.3924999999999983      16.177500000000002      32.355000000000004
   110   1      5.3924999999999983      14.380000000000003      37.747499999999995
   111   1      5.3924999999999983      16.177500000000002      35.949999999999996
   112   1      5.3924999999999983      14.380000000000003      41.342500000000001
   113   1      5.3924999999999983      16.177500000000002      39.544999999999995
   114   1      5.3924999999999983      14.380000000000003                 44.9375
   115   1      5.3924999999999983      16.177500000000002      43.140000000000001
   116   1      5.3924999999999983      14.380000000000003      48.532500000000006
   117   1      5.3924999999999983      16.177500000000002      46.734999999999999
   118   1      5.3924999999999983      14.380000000000003      52.127500000000005
   119   1      5.3924999999999983      16.177500000000002      50.329999999999998
   120   1      5.3924999999999983      14.380000000000003      55.722500000000004
   121   1      5.3924999999999983      16.177500000000002      53.924999999999997
   122   1      5.3924999999999983      14.380000000000003      59.317499999999995
   123   1      5.3924999999999983      16.177500000000002      57.520000000000003
   124   1      5.3924999999999983      14.380000000000003      62.912500000000001
   125   1      5.3924999999999983      16.177500000000002      61.115000000000009
   126   1      5.3924999999999983      16.177500000000002      64.710000000000008
   127   1      5.3924999999999983      17.974999999999998      16.177500000000002
   128   1      5.3924999999999983      19.772499999999997      14.380000000000003
   129   1      5.3924999999999983      17.974999999999998      19.772499999999997
   130   1      5.3924999999999983      19.772499999999997      17.974999999999998
   131   1      5.3924999999999983      17.974999999999998                 23.3675
   132   1      5.3924999999999983      19.772499999999997                   21.57
   133   1      5.3924999999999983      17.974999999999998      26.962499999999999
   134   1      5.3924999999999983      19.772499999999997      25.164999999999999
   135   1      5.3924999999999983      17.974999999999998      30.557500000000005
   136   1      5.3924999999999983      19.772499999999997      28.760000000000005
   137   1      5.3924999999999983      17.974999999999998      34.152500000000003
   138   1      5.3924999999999983      19.772499999999997      32.355000000000004
   139   1      5.3924999999999983      17.974999999999998      37.747499999999995
   140   1      5.3924999999999983      19.772499999999997      35.949999999999996
   141   1      5.3924999999999983      17.974999999999998      41.342500000000001
   142   1      5.3924999999999983      19.772499999999997      39.544999999999995
   143   1      5.3924999999999983      17.974999999999998                 44.9375
   144   1      5.3924999999999983      19.772499999999997      43.140000000000001
   145   1      5.3924999999999983      17.974999999999998      48.532500000000006
   146   1      5.3924999999999983      19.772499999999997      46.734999999999999
   147   1      5.3924999999999983      17.974999999999998      52.127500000000005
   148   1      5.3924999999999983      19.772499999999997      50.329999999999998
   149   1      5.3924999999999983      17.974999999999998      55.722500000000004
   150   1      5.3924999999999983      19.772499999999997      53.924999999999997
   151   1      5.3924999999999983      17.974999999999998      59.317499999999995
   152   1      5.3924999999999983      19.772499999999997      57.520000000000003
   153   1      5.3924999999999983      17.974999999999998      62.912500000000001
   154   1      5.3924999999999983      19.772499999999997      61.115000000000009
   155   1      5.3924999999999983      19.772499999999997      64.710000000000008
   156   1      5.3924999999999983                   21.57      16.177500000000002
   157   1      5.3924999999999983                 23.3675      14.380000000000003
   158   1      5.3924999999999983                   21.57      19.772499999999997
   159   1      5.3924999999999983                 23.3675      17.974999999999998
   160   1      3.5949999999999989                   21.57                   21.57
   161   1      3.5949999999999989                 23.3675                 23.3675
   162   1      5.3924999999999983                   21.57                 23.3675
   163   1      5.3924999999999983                 23.3675                   21.57
   164   1      3.5949999999999989                   21.57      25.164999999999999
   165   1      3.5949999999999989                 23.3675      26.962499999999999
   166   1      5.3924999999999983                   21.57      26.962499999999999
   167   1      5.3924999999999983                 23.3675      25.164999999999999
   168   1      3.5949999999999989                   21.57      28.760000000000005
   169   1      3.5949999999999989                 23.3675      30.557500000000005
   170   1      5.3924999999999983                   21.57      30.557500000000005
   171   1      5.3924999999999983                 23.3675      28.760000000000005
   172   1      3.5949999999999989                   21.57      32.355000000000004
   173   1      3.5949999999999989                 23.3675      34.152500000000003
   174   1      5.3924999999999983                   21.57      34.152500000000003
   175   1      5.3924999999999983                 23.3675      32.355000000000004
   176   1      3.5949999999999989                   21.57      35.949999999999996
   177   1      3.5949999999999989                 23.3675      37.747499999999995
   178   1      5.3924999999999983                   21.57      37.747499999999995
   179   1      5.3924999999999983                 23.3675      35.949999999999996
   180   1      3.5949999999999989                   21.57      39.544999999999995
   181   1      3.5949999999999989                 23.3675      41.342500000000001
   182   1      5.3924999999999983                   21.57      41.342500000000001
   183   1      5.3924999999999983                 23.3675      39.544999999999995
   184   1      3.5949999999999989                   21.57      43.140000000000001
   185   1      3.5949999999999989                 23.3675                 44.9375
   186   1      5.3924999999999983                   21.57                 44.9375
   187   1      5.3924999999999983                 23.3675      43.140000000000001
   188   1      3.5949999999999989                   21.57      46.734999999999999
   189   1      3.5949999999999989                 23.3675      48.532500000000006
   190   1      5.3924999999999983                   21.57      48.532500000000006
   191   1      5.3924999999999983                 23.3675      46.734999999999999
   192   1      3.5949999999999989                   21.57      50.329999999999998
   193   1      3.5949999999999989                 23.3675      52.127500000000005
   194   1      5.3924999999999983                   21.57      52.127500000000005
   195   1      5.3924999999999983                 23.3675      50.329999999999998
   196   1      3.5949999999999989                   21.57      53.924999999999997
   197   1      3.5949999999999989                 23.3675      55.722500000000004
   198   1      5.3924999999999983                   21.57      55.722500000000004
   199   1      5.3924999999999983                 23.3675      53.924999999999997
   200   1      3.5949999999999989                   21.57      57.520000000000003
   201   1      5.3924999999999983                   21.57      59.317499999999995
   202   1      5.3924999999999983                 23.3675      57.520000000000003
   203   1      5.3924999999999983                   21.57      62.912500000000001
   204   1      5.3924999999999983                 23.3675      61.115000000000009
   205   1      5.3924999999999983                 23.3675      64.710000000000008
   206   1      5.3924999999999983      25.164999999999999      16.177500000000002
   207   1      5.3924999999999983      26.962499999999999      14.380000000000003
   208   1      5.3924999999999983      25.164999999999999      19.772499999999997
   209   1      5.3924999999999983      26.962499999999999      17.974999999999998
   210   1      3.5949999999999989      25.164999999999999                   21.57
   211   1      3.5949999999999989      26.962499999999999                 23.3675
   212   1      5.3924999999999983      25.164999999999999                 23.3675
   213   1      5.3924999999999983      26.962499999999999                   21.57
   214   1      3.5949999999999989      25.164999999999999      25.164999999999999
   215   1      3.5949999999999989      26.962499999999999      26.962499999999999
   216   1      5.3924999999999983      25.164999999999999      26.962499999999999
   217   1      5.3924999999999983      26.962499999999999      25.164999999999999
   218   1      3.5949999999999989      25.164999999999999      28.760000000000005
   219   1      3.5949999999999989      26.962499999999999      30.557500000000005
   220   1      5.3924999999999983      25.164999999999999      30.557500000000005
   221   1      5.3924999999999983      26.962499999999999      28.760000000000005
   222   1      3.5949999999999989      25.164999999999999      32.355000000000004
   223   1      3.5949999999999989      26.962499999999999      34.152500000000003
   224   1      5.3924999999999983      25.164999999999999      34.152500000000003
   225   1      5.3924999999999983      26.962499999999999      32.355000000000004
   226   1      3.5949999999999989      25.164999999999999      35.949999999999996
   227   1      3.5949999999999989      26.962499999999999      37.747499999999995
   228   1      5.3924999999999983      25.164999999999999      37.747499999999995
   229   1      5.3924999999999983      26.962499999999999      35.949999999999996
   230   1      3.5949999999999989      25.164999999999999      39.544999999999995
   231   1      3.5949999999999989      26.962499999999999      41.342500000000001
   232   1      5.3924999999999983      25.164999999999999      41.342500000000001
   233   1      5.3924999999999983      26.962499999999999      39.544999999999995
   234   1      3.5949999999999989      25.164999999999999      43.140000000000001
   235   1      3.5949999999999989      26.962499999999999                 44.9375
   236   1      5.3924999999999983      25.164999999999999                 44.9375
   237   1      5.3924999999999983      26.962499999999999      43.140000000000001
   238   1      3.5949999999999989      25.164999999999999      46.734999999999999
   239   1      3.5949999999999989      26.962499999999999      48.532500000000006
   240   1      5.3924999999999983      25.164999999999999      48.532500000000006
   241   1      5.3924999999999983      26.962499999999999      46.734999999999999
   242   1      3.5949999999999989      25.164999999999999      50.329999999999998
   243   1      3.5949999999999989      26.962499999999999      52.127500000000005
   244   1      5.3924999999999983      25.164999999999999      52.127500000000005
   245   1      5.3924999999999983      26.962499999999999      50.329999999999998
   246   1      3.5949999999999989      25.164999999999999      53.924999999999997
   247   1      3.5949999999999989      26.962499999999999      55.722500000000004
   248   1      5.3924999999999983      25.164999999999999      55.722500000000004
   249   1      5.3924999999999983      26.962499999999999      53.924999999999997
   250   1      3.5949999999999989      25.164999999999999      57.520000000000003
   251   1      5.3924999999999983      25.164999999999999      59.317499999999995
   252   1      5.3924999999999983      26.962499999999999      57.520000000000003
   253   1      5.3924999999999983      25.164999999999999      62.912500000000001
   254   1      5.3924999999999983      26.962499999999999      61.115000000000009
   255   1      5.3924999999999983      26.962499999999999      64.710000000000008
   256   1      5.3924999999999983      28.760000000000005      16.177500000000002
   257   1      5.3924999999999983      30.557500000000005      14.380000000000003
   258   1      5.3924999999999983      28.760000000000005      19.772499999999997
   259   1      5.3924999999999983      30.557500000000005      17.974999999999998
   260   1      3.5949999999999989      28.760000000000005                   21.57
   261   1      3.5949999999999989      30.557500000000005                 23.3675
   262   1      5.3924999999999983      28.760000000000005                 23.3675
   263   1      5.3924999999999983      30.557500000000005                   21.57
   264   1      3.5949999999999989      28.760000000000005      25.164999999999999
   265   1      3.5949999999999989      30.557500000000005      26.962499999999999
   266   1      5.3924999999999983      28.760000000000005      26.962499999999999
   267   1      5.3924999999999983      30.557500000000005      25.164999999999999
   268   1      3.5949999999999989      28.760000000000005      28.760000000000005
   269   1      3.5949999999999989      30.557500000000005      30.557500000000005
   270   1      5.3924999999999983      28.760000000000005      30.557500000000005
   271   1      5.3924999999999983      30.557500000000005      28.760000000000005
   272   1      3.5949999999999989      28.760000000000005      32.355000000000004
   273   1      3.5949999999999989      30.557500000000005      34.152500000000003
   274   1      5.3924999999999983      28.760000000000005      34.152500000000003
   275   1      5.3924999999999983      30.557500000000005      32.355000000000004
   276   1      3.5949999999999989      28.760000000000005      35.949999999999996
   277   1      3.5949999999999989      30.557500000000005      37.747499999999995
   278   1      5.3924999999999983      28.760000000000005      37.747499999999995
   279   1      5.3924999999999983      30.557500000000005      35.949999999999996
   280   1      3.5949999999999989      28.760000000000005      39.544999999999995
   281   1      3.5949999999999989      30.557500000000005      41.342500000000001
   282   1      5.3924999999999983      28.760000000000005      41.342500000000001
   283   1      5.3924999999999983      30.557500000000005      39.544999999999995
   284   1      3.5949999999999989      28.760000000000005      43.140000000000001
   285   1      3.5949999999999989      30.557500000000005                 44.9375
   286   1      5.3924999999999983      28.760000000000005                 44.9375
   287   1      5.3924999999999983      30.557500000000005      43.140000000000001
   288   1      3.5949999999999989      28.760000000000005      46.734999999999999
   289   1      3.5949999999999989      30.557500000000005      48.532500000000006
   290   1      5.3924999999999983      28.760000000000005      48.532500000000006
   291   1      5.3924999999999983      30.557500000000005      46.734999999999999
   292   1      3.5949999999999989      28.760000000000005      50.329999999999998
   293   1      3.5949999999999989      30.557500000000005      52.127500000000005
   294   1      5.3924999999999983      28.760000000000005      52.127500000000005
   295   1      5.3924999999999983      30.557500000000005      50.329999999999998
   296   1      3.5949999999999989      28.760000000000005      53.924999999999997
   297   1      3.5949999999999989      30.557500000000005      55.722500000000004
   298   1      5.3924999999999983      28.760000000000005      55.722500000000004
   299   1      5.3924999999999983      30.557500000000005      53.924999999999997
   300   1      3.5949999999999989      28.760000000000005      57.520000000000003
   301   1      5.3924999999999983      28.760000000000005      59.317499999999995
   302   1      5.3924999999999983      30.557500000000005      57.520000000000003
   303   1      5.3924999999999983      28.760000000000005      62.912500000000001
   304   1      5.3924999999999983      30.557500000000005      61.115000000000009
   305   1      5.3924999999999983      30.557500000000005      64.710000000000008
   306   1      5.3924999999999983      32.355000000000004      16.177500000000002
   307   1      5.3924999999999983      34.152500000000003      14.380000000000003
   308   1      5.3924999999999983      32.355000000000004      19.772499999999997
   309   1      5.3924999999999983      34.152500000000003      17.974999999999998
   310   1      3.5949999999999989      32.355000000000004                   21.57
   311   1      3.5949999999999989      34.152500000000003                 23.3675
   312   1      5.3924999999999983      32.355000000000004                 23.3675
   313   1      5.3924999999999983      34.152500000000003                   21.57
   314   1      3.5949999999999989      32.355000000000004      25.164999999999999
   315   1      3.5949999999999989      34.152500000000003      26.962499999999999
   316   1      5.3924999999999983      32.355000000000004      26.962499999999999
   317   1      5.3924999999999983      34.152500000000003      25.164999999999999
   318   1      3.5949999999999989      32.355000000000004      28.760000000000005
   319   1      3.5949999999999989      34.152500000000003      30.557500000000005
   320   1      5.3924999999999983      32.355000000000004      30.557500000000005
   321   1      5.3924999999999983      34.152500000000003      28.760000000000005
   322   1      3.5949999999999989      32.355000000000004      32.355000000000004
   323   1      3.5949999999999989      34.152500000000003      34.152500000000003
   324   1      5.3924999999999983      32.355000000000004      34.152500000000003
   325   1      5.3924999999999983      34.152500000000003      32.355000000000004
   326   1      3.5949999999999989      32.355000000000004      35.949999999999996
   327   1      3.5949999999999989      34.152500000000003      37.747499999999995
   328   1      5.3924999999999983      32.355000000000004      37.747499999999995
   329   1      5.3924999999999983      34.152500000000003      35.949999999999996
   330   1      3.5949999999999989      32.355000000000004      39.544999999999995
   331   1      3.5949999999999989      34.152500000000003      41.342500000000001
   332   1      5.3924999999999983      32.355000000000004      41.342500000000001
   333   1      5.3924999999999983      34.152500000000003      39.544999999999995
   334   1      3.5949999999999989      32.355000000000004      43.140000000000001
   335   1      3.5949999999999989      34.152500000000003                 44.9375
   336   1      5.3924999999999983      32.355000000000004                 44.9375
   337   1      5.3924999999999983      34.152500000000003      43.140000000000001
   338   1      3.5949999999999989      32.355000000000004      46.734999999999999
   339   1      3.5949999999999989      34.152500000000003      48.532500000000006
   340   1      5.3924999999999983      32.355000000000004      48.532500000000006
   341   1      5.3924999999999983      34.152500000000003      46.734999999999999
   342   1      3.5949999999999989      32.355000000000004      50.329999999999998
   343   1      3.5949999999999989      34.152500000000003      52.127500000000005
   344   1      5.3924999999999983      32.355000000000004      52.127500000000005
   345   1      5.3924999999999983      34.152500000000003      50.329999999999998
   346   1      3.5949999999999989      32.355000000000004      53.924999999999997
   347   1      3.5949999999999989      34.152500000000003      55.722500000000004
   348   1      5.3924999999999983      32.355000000000004      55.722500000000004
   349   1      5.3924999999999983      34.152500000000003      53.924999999999997
   350   1      3.5949999999999989      32.355000000000004      57.520000000000003
   351   1      5.3924999999999983      32.355000000000004      59.317499999999995
   352   1      5.3924999999999983      34.152500000000003      57.520000000000003
   353   1      5.3924999999999983      32.355000000000004      62.912500000000001
   354   1      5.3924999999999983      34.152500000000003      61.115000000000009
   355   1      5.3924999999999983      34.152500000000003      64.710000000000008
   356   1      5.3924999999999983      35.949999999999996      16.177500000000002
   357   1      5.3924999999999983      37.747499999999995      14.380000000000003
   358   1      5.3924999999999983      35.949999999999996      19.772499999999997