model_files/PtFe/PtFe_30000/PtFe_541/PtFe_541_fcc_30387_temp.data (written by ASE) 

30387 	 atoms 
2  atom types
0.0                     112  xlo xhi
0.0                     112  ylo yhi
0.0                     112  zlo zhi


Atoms 

     1   1      1.8800000000000023      54.519999999999996      56.399999999999999
     2   1      1.8800000000000023      56.399999999999999      54.519999999999996
     3   1                       0      56.399999999999999      56.399999999999999
     4   1      1.8800000000000023      56.399999999999999      58.280000000000001
     5   1      1.8800000000000023      58.280000000000001      56.399999999999999
     6   1      5.6399999999999997      50.759999999999998      52.640000000000001
     7   1      5.6399999999999997      50.759999999999998      56.399999999999999
     8   1      5.6399999999999997      50.759999999999998      60.159999999999989
     9   1      5.6399999999999997      52.640000000000001      50.759999999999998
    10   1      3.7599999999999976      52.640000000000001      52.640000000000001
    11   1      3.7599999999999976      54.519999999999996      54.519999999999996
    12   1      5.6399999999999997      52.640000000000001      54.519999999999996
    13   1      5.6399999999999997      54.519999999999996      52.640000000000001
    14   1      3.7599999999999976      52.640000000000001      56.399999999999999
    15   1      3.7599999999999976      54.519999999999996      58.280000000000001
    16   1      5.6399999999999997      52.640000000000001      58.280000000000001
    17   1      5.6399999999999997      54.519999999999996      56.399999999999999
    18   1      3.7599999999999976      52.640000000000001      60.159999999999989
    19   1      5.6399999999999997      52.640000000000001      62.039999999999999
    20   1      5.6399999999999997      54.519999999999996      60.159999999999989
    21   1      5.6399999999999997      56.399999999999999      50.759999999999998
    22   1      3.7599999999999976      56.399999999999999      52.640000000000001
    23   1      3.7599999999999976      58.280000000000001      54.519999999999996
    24   1      5.6399999999999997      56.399999999999999      54.519999999999996
    25   1      5.6399999999999997      58.280000000000001      52.640000000000001
    26   1      3.7599999999999976      56.399999999999999      56.399999999999999
    27   1      3.7599999999999976      58.280000000000001      58.280000000000001
    28   1      5.6399999999999997      56.399999999999999      58.280000000000001
    29   1      5.6399999999999997      58.280000000000001      56.399999999999999
    30   1      3.7599999999999976      56.399999999999999      60.159999999999989
    31   1      5.6399999999999997      56.399999999999999      62.039999999999999
    32   1      5.6399999999999997      58.280000000000001      60.159999999999989
    33   1      5.6399999999999997      60.159999999999989      50.759999999999998
    34   1      3.7599999999999976      60.159999999999989      52.640000000000001
    35   1      5.6399999999999997      60.159999999999989      54.519999999999996
    36   1      5.6399999999999997      62.039999999999999      52.640000000000001
    37   1      3.7599999999999976      60.159999999999989      56.399999999999999
    38   1      5.6399999999999997      60.159999999999989      58.280000000000001
    39   1      5.6399999999999997      62.039999999999999      56.399999999999999
    40   1      3.7599999999999976      60.159999999999989      60.159999999999989
    41   1      5.6399999999999997      60.159999999999989      62.039999999999999
    42   1      5.6399999999999997      62.039999999999999      60.159999999999989
    43   1      9.3999999999999986      46.999999999999993      48.879999999999995
    44   1      9.3999999999999986       45.11999999999999      54.519999999999996
    45   1      9.3999999999999986      46.999999999999993      52.640000000000001
    46   1      9.3999999999999986       45.11999999999999      58.280000000000001
    47   1      9.3999999999999986      46.999999999999993      56.399999999999999
    48   1      9.3999999999999986      46.999999999999993      60.159999999999989
    49   1      9.3999999999999986      46.999999999999993      63.919999999999987
    50   1      9.3999999999999986      48.879999999999995      46.999999999999993
    51   1      7.5200000000000031      48.879999999999995      48.879999999999995
    52   1      7.5200000000000031      50.759999999999998      50.759999999999998
    53   1      9.3999999999999986      48.879999999999995      50.759999999999998
    54   1      9.3999999999999986      50.759999999999998      48.879999999999995
    55   1      7.5200000000000031      48.879999999999995      52.640000000000001
    56   1      7.5200000000000031      50.759999999999998      54.519999999999996
    57   1      9.3999999999999986      48.879999999999995      54.519999999999996
    58   1      9.3999999999999986      50.759999999999998      52.640000000000001
    59   1      7.5200000000000031      48.879999999999995      56.399999999999999
    60   1      7.5200000000000031      50.759999999999998      58.280000000000001
    61   1      9.3999999999999986      48.879999999999995      58.280000000000001
    62   1      9.3999999999999986      50.759999999999998      56.399999999999999
    63   1      7.5200000000000031      48.879999999999995      60.159999999999989
    64   1      7.5200000000000031      50.759999999999998      62.039999999999999
    65   1      9.3999999999999986      48.879999999999995      62.039999999999999
    66   1      9.3999999999999986      50.759999999999998      60.159999999999989
    67   1      7.5200000000000031      48.879999999999995      63.919999999999987
    68   1      9.3999999999999986      48.879999999999995      65.799999999999983
    69   1      9.3999999999999986      50.759999999999998      63.919999999999987
    70   1      9.3999999999999986      52.640000000000001      46.999999999999993
    71   1      9.3999999999999986      54.519999999999996       45.11999999999999
    72   1      7.5200000000000031      52.640000000000001      48.879999999999995
    73   1      7.5200000000000031      54.519999999999996      50.759999999999998
    74   1      9.3999999999999986      52.640000000000001      50.759999999999998
    75   1      9.3999999999999986      54.519999999999996      48.879999999999995
    76   1      7.5200000000000031      52.640000000000001      52.640000000000001
    77   1      7.5200000000000031      54.519999999999996      54.519999999999996
    78   1      9.3999999999999986      52.640000000000001      54.519999999999996
    79   1      9.3999999999999986      54.519999999999996      52.640000000000001
    80   1      7.5200000000000031      52.640000000000001      56.399999999999999
    81   1      7.5200000000000031      54.519999999999996      58.280000000000001
    82   1      9.3999999999999986      52.640000000000001      58.280000000000001
    83   1      9.3999999999999986      54.519999999999996      56.399999999999999
    84   1      7.5200000000000031      52.640000000000001      60.159999999999989
    85   1      7.5200000000000031      54.519999999999996      62.039999999999999
    86   1      9.3999999999999986      52.640000000000001      62.039999999999999
    87   1      9.3999999999999986      54.519999999999996      60.159999999999989
    88   1      7.5200000000000031      52.640000000000001      63.919999999999987
    89   1      9.3999999999999986      52.640000000000001      65.799999999999983
    90   1      9.3999999999999986      54.519999999999996      63.919999999999987
    91   1      9.3999999999999986      54.519999999999996      67.679999999999993
    92   1      9.3999999999999986      56.399999999999999      46.999999999999993
    93   1      9.3999999999999986      58.280000000000001       45.11999999999999
    94   1      7.5200000000000031      56.399999999999999      48.879999999999995
    95   1      7.5200000000000031      58.280000000000001      50.759999999999998
    96   1      9.3999999999999986      56.399999999999999      50.759999999999998
    97   1      9.3999999999999986      58.280000000000001      48.879999999999995
    98   1      7.5200000000000031      56.399999999999999      52.640000000000001
    99   1      7.5200000000000031      58.280000000000001      54.519999999999996
   100   1      9.3999999999999986      56.399999999999999      54.519999999999996
   101   1      9.3999999999999986      58.280000000000001      52.640000000000001
   102   1      7.5200000000000031      56.399999999999999      56.399999999999999
   103   1      7.5200000000000031      58.280000000000001      58.280000000000001
   104   1      9.3999999999999986      56.399999999999999      58.280000000000001
   105   1      9.3999999999999986      58.280000000000001      56.399999999999999
   106   1      7.5200000000000031      56.399999999999999      60.159999999999989
   107   1      7.5200000000000031      58.280000000000001      62.039999999999999
   108   1      9.3999999999999986      56.399999999999999      62.039999999999999
   109   1      9.3999999999999986      58.280000000000001      60.159999999999989
   110   1      7.5200000000000031      56.399999999999999      63.919999999999987
   111   1      9.3999999999999986      56.399999999999999      65.799999999999983
   112   1      9.3999999999999986      58.280000000000001      63.919999999999987
   113   1      9.3999999999999986      58.280000000000001      67.679999999999993
   114   1      9.3999999999999986      60.159999999999989      46.999999999999993
   115   1      7.5200000000000031      60.159999999999989      48.879999999999995
   116   1      7.5200000000000031      62.039999999999999      50.759999999999998
   117   1      9.3999999999999986      60.159999999999989      50.759999999999998
   118   1      9.3999999999999986      62.039999999999999      48.879999999999995
   119   1      7.5200000000000031      60.159999999999989      52.640000000000001
   120   1      7.5200000000000031      62.039999999999999      54.519999999999996
   121   1      9.3999999999999986      60.159999999999989      54.519999999999996
   122   1      9.3999999999999986      62.039999999999999      52.640000000000001
   123   1      7.5200000000000031      60.159999999999989      56.399999999999999
   124   1      7.5200000000000031      62.039999999999999      58.280000000000001
   125   1      9.3999999999999986      60.159999999999989      58.280000000000001
   126   1      9.3999999999999986      62.039999999999999      56.399999999999999
   127   1      7.5200000000000031      60.159999999999989      60.159999999999989
   128   1      7.5200000000000031      62.039999999999999      62.039999999999999
   129   1      9.3999999999999986      60.159999999999989      62.039999999999999
   130   1      9.3999999999999986      62.039999999999999      60.159999999999989
   131   1      7.5200000000000031      60.159999999999989      63.919999999999987
   132   1      9.3999999999999986      60.159999999999989      65.799999999999983
   133   1      9.3999999999999986      62.039999999999999      63.919999999999987
   134   1      9.3999999999999986      63.919999999999987      46.999999999999993
   135   1      7.5200000000000031      63.919999999999987      48.879999999999995
   136   1      9.3999999999999986      63.919999999999987      50.759999999999998
   137   1      9.3999999999999986      65.799999999999983      48.879999999999995
   138   1      7.5200000000000031      63.919999999999987      52.640000000000001
   139   1      9.3999999999999986      63.919999999999987      54.519999999999996
   140   1      9.3999999999999986      65.799999999999983      52.640000000000001
   141   1      7.5200000000000031      63.919999999999987      56.399999999999999
   142   1      9.3999999999999986      63.919999999999987      58.280000000000001
   143   1      9.3999999999999986      65.799999999999983      56.399999999999999
   144   1      7.5200000000000031      63.919999999999987      60.159999999999989
   145   1      9.3999999999999986      63.919999999999987      62.039999999999999
   146   1      9.3999999999999986      65.799999999999983      60.159999999999989
   147   1      7.5200000000000031      63.919999999999987      63.919999999999987
   148   1      9.3999999999999986      63.919999999999987      65.799999999999983
   149   1      9.3999999999999986      65.799999999999983      63.919999999999987
   150   1      9.3999999999999986      67.679999999999993      54.519999999999996
   151   1      9.3999999999999986      67.679999999999993      58.280000000000001
   152   1      13.160000000000002      43.240000000000002       45.11999999999999
   153   1      13.160000000000002      41.359999999999999      50.759999999999998
   154   1      13.160000000000002      43.240000000000002      48.879999999999995
   155   1      11.279999999999999      43.240000000000002      54.519999999999996
   156   1      13.160000000000002      41.359999999999999      54.519999999999996
   157   1      13.160000000000002      43.240000000000002      52.640000000000001
   158   1      11.279999999999999      43.240000000000002      58.280000000000001
   159   1      13.160000000000002      41.359999999999999      58.280000000000001
   160   1      13.160000000000002      43.240000000000002      56.399999999999999
   161   1      13.160000000000002      41.359999999999999      62.039999999999999
   162   1      13.160000000000002      43.240000000000002      60.159999999999989
   163   1      13.160000000000002      43.240000000000002      63.919999999999987
   164   1      13.160000000000002      43.240000000000002      67.679999999999993
   165   1      13.160000000000002       45.11999999999999      43.240000000000002
   166   1      11.279999999999999       45.11999999999999       45.11999999999999
   167   1      11.279999999999999      46.999999999999993      46.999999999999993
   168   1      13.160000000000002       45.11999999999999      46.999999999999993
   169   1      13.160000000000002      46.999999999999993       45.11999999999999
   170   1      11.279999999999999       45.11999999999999      48.879999999999995
   171   1      11.279999999999999      46.999999999999993      50.759999999999998
   172   1      13.160000000000002       45.11999999999999      50.759999999999998
   173   1      13.160000000000002      46.999999999999993      48.879999999999995
   174   1      11.279999999999999       45.11999999999999      52.640000000000001
   175   1      11.279999999999999      46.999999999999993      54.519999999999996
   176   1      13.160000000000002       45.11999999999999      54.519999999999996
   177   1      13.160000000000002      46.999999999999993      52.640000000000001
   178   1      11.279999999999999       45.11999999999999      56.399999999999999
   179   1      11.279999999999999      46.999999999999993      58.280000000000001
   180   1      13.160000000000002       45.11999999999999      58.280000000000001
   181   1      13.160000000000002      46.999999999999993      56.399999999999999
   182   1      11.279999999999999       45.11999999999999      60.159999999999989
   183   1      11.279999999999999      46.999999999999993      62.039999999999999
   184   1      13.160000000000002       45.11999999999999      62.039999999999999
   185   1      13.160000000000002      46.999999999999993      60.159999999999989
   186   1      11.279999999999999       45.11999999999999      63.919999999999987
   187   1      11.279999999999999      46.999999999999993      65.799999999999983
   188   1      13.160000000000002       45.11999999999999      65.799999999999983
   189   1      13.160000000000002      46.999999999999993      63.919999999999987
   190   1      11.279999999999999       45.11999999999999      67.679999999999993
   191   1      13.160000000000002       45.11999999999999      69.559999999999974
   192   1      13.160000000000002      46.999999999999993      67.679999999999993
   193   1      13.160000000000002      48.879999999999995      43.240000000000002
   194   1      13.160000000000002      50.759999999999998      41.359999999999999
   195   1      11.279999999999999      48.879999999999995       45.11999999999999
   196   1      11.279999999999999      50.759999999999998      46.999999999999993
   197   1      13.160000000000002      48.879999999999995      46.999999999999993
   198   1      13.160000000000002      50.759999999999998       45.11999999999999
   199   1      11.279999999999999      48.879999999999995      48.879999999999995
   200   1      11.279999999999999      50.759999999999998      50.759999999999998
   201   1      13.160000000000002      48.879999999999995      50.759999999999998
   202   1      13.160000000000002      50.759999999999998      48.879999999999995
   203   1      11.279999999999999      48.879999999999995      52.640000000000001
   204   1      11.279999999999999      50.759999999999998      54.519999999999996
   205   1      13.160000000000002      48.879999999999995      54.519999999999996
   206   1      13.160000000000002      50.759999999999998      52.640000000000001
   207   1      11.279999999999999      48.879999999999995      56.399999999999999
   208   1      11.279999999999999      50.759999999999998      58.280000000000001
   209   1      13.160000000000002      48.879999999999995      58.280000000000001
   210   1      13.160000000000002      50.759999999999998      56.399999999999999
   211   1      11.279999999999999      48.879999999999995      60.159999999999989
   212   1      11.279999999999999      50.759999999999998      62.039999999999999
   213   1      13.160000000000002      48.879999999999995      62.039999999999999
   214   1      13.160000000000002      50.759999999999998      60.159999999999989
   215   1      11.279999999999999      48.879999999999995      63.919999999999987
   216   1      11.279999999999999      50.759999999999998      65.799999999999983
   217   1      13.160000000000002      48.879999999999995      65.799999999999983
   218   1      13.160000000000002      50.759999999999998      63.919999999999987
   219   1      11.279999999999999      48.879999999999995      67.679999999999993
   220   1      13.160000000000002      48.879999999999995      69.559999999999974
   221   1      13.160000000000002      50.759999999999998      67.679999999999993
   222   1      13.160000000000002      50.759999999999998      71.439999999999998
   223   1      11.279999999999999      54.519999999999996      43.240000000000002
   224   1      13.160000000000002      52.640000000000001      43.240000000000002
   225   1      13.160000000000002      54.519999999999996      41.359999999999999
   226   1      11.279999999999999      52.640000000000001       45.11999999999999
   227   1      11.279999999999999      54.519999999999996      46.999999999999993
   228   1      13.160000000000002      52.640000000000001      46.999999999999993
   229   1      13.160000000000002      54.519999999999996       45.11999999999999
   230   1      11.279999999999999      52.640000000000001      48.879999999999995
   231   1      11.279999999999999      54.519999999999996      50.759999999999998
   232   1      13.160000000000002      52.640000000000001      50.759999999999998
   233   1      13.160000000000002      54.519999999999996      48.879999999999995
   234   1      11.279999999999999      52.640000000000001      52.640000000000001
   235   1      11.279999999999999      54.519999999999996      54.519999999999996
   236   1      13.160000000000002      52.640000000000001      54.519999999999996
   237   1      13.160000000000002      54.519999999999996      52.640000000000001
   238   1      11.279999999999999      52.640000000000001      56.399999999999999
   239   1      11.279999999999999      54.519999999999996      58.280000000000001
   240   1      13.160000000000002      52.640000000000001      58.280000000000001
   241   1      13.160000000000002      54.519999999999996      56.399999999999999
   242   1      11.279999999999999      52.640000000000001      60.159999999999989
   243   1      11.279999999999999      54.519999999999996      62.039999999999999
   244   1      13.160000000000002      52.640000000000001      62.039999999999999
   245   1      13.160000000000002      54.519999999999996      60.159999999999989
   246   1      11.279999999999999      52.640000000000001      63.919999999999987
   247   1      11.279999999999999      54.519999999999996      65.799999999999983
   248   1      13.160000000000002      52.640000000000001      65.799999999999983
   249   1      13.160000000000002      54.519999999999996      63.919999999999987
   250   1      11.279999999999999      52.640000000000001      67.679999999999993
   251   1      11.279999999999999      54.519999999999996      69.559999999999974
   252   1      13.160000000000002      52.640000000000001      69.559999999999974
   253   1      13.160000000000002      54.519999999999996      67.679999999999993
   254   1      13.160000000000002      54.519999999999996      71.439999999999998
   255   1      11.279999999999999      58.280000000000001      43.240000000000002
   256   1      13.160000000000002      56.399999999999999      43.240000000000002
   257   1      13.160000000000002      58.280000000000001      41.359999999999999
   258   1      11.279999999999999      56.399999999999999       45.11999999999999
   259   1      11.279999999999999      58.280000000000001      46.999999999999993
   260   1      13.160000000000002      56.399999999999999      46.999999999999993
   261   1      13.160000000000002      58.280000000000001       45.11999999999999
   262   1      11.279999999999999      56.399999999999999      48.879999999999995
   263   1      11.279999999999999      58.280000000000001      50.759999999999998
   264   1      13.160000000000002      56.399999999999999      50.759999999999998
   265   1      13.160000000000002      58.280000000000001      48.879999999999995
   266   1      11.279999999999999      56.399999999999999      52.640000000000001
   267   1      11.279999999999999      58.280000000000001      54.519999999999996
   268   1      13.160000000000002      56.399999999999999      54.519999999999996
   269   1      13.160000000000002      58.280000000000001      52.640000000000001
   270   1      11.279999999999999      56.399999999999999      56.399999999999999
   271   1      11.279999999999999      58.280000000000001      58.280000000000001
   272   1      13.160000000000002      56.399999999999999      58.280000000000001
   273   1      13.160000000000002      58.280000000000001      56.399999999999999
   274   1      11.279999999999999      56.399999999999999      60.159999999999989
   275   1      11.279999999999999      58.280000000000001      62.039999999999999
   276   1      13.160000000000002      56.399999999999999      62.039999999999999
   277   1      13.160000000000002      58.280000000000001      60.159999999999989
   278   1      11.279999999999999      56.399999999999999      63.919999999999987
   279   1      11.279999999999999      58.280000000000001      65.799999999999983
   280   1      13.160000000000002      56.399999999999999      65.799999999999983
   281   1      13.160000000000002      58.280000000000001      63.919999999999987
   282   1      11.279999999999999      56.399999999999999      67.679999999999993
   283   1      11.279999999999999      58.280000000000001      69.559999999999974
   284   1      13.160000000000002      56.399999999999999      69.559999999999974
   285   1      13.160000000000002      58.280000000000001      67.679999999999993
   286   1      13.160000000000002      58.280000000000001      71.439999999999998
   287   1      13.160000000000002      60.159999999999989      43.240000000000002
   288   1      13.160000000000002      62.039999999999999      41.359999999999999
   289   1      11.279999999999999      60.159999999999989       45.11999999999999
   290   1      11.279999999999999      62.039999999999999      46.999999999999993
   291   1      13.160000000000002      60.159999999999989      46.999999999999993
   292   1      13.160000000000002      62.039999999999999       45.11999999999999
   293   1      11.279999999999999      60.159999999999989      48.879999999999995
   294   1      11.279999999999999      62.039999999999999      50.759999999999998
   295   1      13.160000000000002      60.159999999999989      50.759999999999998
   296   1      13.160000000000002      62.039999999999999      48.879999999999995
   297   1      11.279999999999999      60.159999999999989      52.640000000000001
   298   1      11.279999999999999      62.039999999999999      54.519999999999996
   299   1      13.160000000000002      60.159999999999989      54.519999999999996
   300   1      13.160000000000002      62.039999999999999      52.640000000000001
   301   1      11.279999999999999      60.159999999999989      56.399999999999999
   302   1      11.279999999999999      62.039999999999999      58.280000000000001
   303   1      13.160000000000002      60.159999999999989      58.280000000000001
   304   1      13.160000000000002      62.039999999999999      56.399999999999999
   305   1      11.279999999999999      60.159999999999989      60.159999999999989
   306   1      11.279999999999999      62.039999999999999      62.039999999999999
   307   1      13.160000000000002      60.159999999999989      62.039999999999999
   308   1      13.160000000000002      62.039999999999999      60.159999999999989
   309   1      11.279999999999999      60.159999999999989      63.919999999999987
   310   1      11.279999999999999      62.039999999999999      65.799999999999983
   311   1      13.160000000000002      60.159999999999989      65.799999999999983
   312   1      13.160000000000002      62.039999999999999      63.919999999999987
   313   1      11.279999999999999      60.159999999999989      67.679999999999993
   314   1      13.160000000000002      60.159999999999989      69.559999999999974
   315   1      13.160000000000002      62.039999999999999      67.679999999999993
   316   1      13.160000000000002      62.039999999999999      71.439999999999998
   317   1      13.160000000000002      63.919999999999987      43.240000000000002
   318   1      11.279999999999999      63.919999999999987       45.11999999999999
   319   1      11.279999999999999      65.799999999999983      46.999999999999993
   320   1      13.160000000000002      63.919999999999987      46.999999999999993
   321   1      13.160000000000002      65.799999999999983       45.11999999999999
   322   1      11.279999999999999      63.919999999999987      48.879999999999995
   323   1      11.279999999999999      65.799999999999983      50.759999999999998
   324   1      13.160000000000002      63.919999999999987      50.759999999999998
   325   1      13.160000000000002      65.799999999999983      48.879999999999995
   326   1      11.279999999999999      63.919999999999987      52.640000000000001
   327   1      11.279999999999999      65.799999999999983      54.519999999999996
   328   1      13.160000000000002      63.919999999999987      54.519999999999996
   329   1      13.160000000000002      65.799999999999983      52.640000000000001
   330   1      11.279999999999999      63.919999999999987      56.399999999999999
   331   1      11.279999999999999      65.799999999999983      58.280000000000001
   332   1      13.160000000000002      63.919999999999987      58.280000000000001
   333   1      13.160000000000002      65.799999999999983      56.399999999999999
   334   1      11.279999999999999      63.919999999999987      60.159999999999989
   335   1      11.279999999999999      65.799999999999983      62.039999999999999
   336   1      13.160000000000002      63.919999999999987      62.039999999999999
   337   1      13.160000000000002      65.799999999999983      60.159999999999989
   338   1      11.279999999999999      63.919999999999987      63.919999999999987
   339   1      11.279999999999999      65.799999999999983      65.799999999999983
   340   1      13.160000000000002      63.919999999999987      65.799999999999983
   341   1      13.160000000000002      65.799999999999983      63.919999999999987
   342   1      11.279999999999999      63.919999999999987      67.679999999999993
   343   1      13.160000000000002      63.919999999999987      69.559999999999974
   344   1      13.160000000000002      65.799999999999983      67.679999999999993
   345   1      13.160000000000002      67.679999999999993      43.240000000000002
   346   1      11.279999999999999      67.679999999999993       45.11999999999999
   347   1      13.160000000000002      67.679999999999993      46.999999999999993
   348   1      13.160000000000002      69.559999999999974       45.11999999999999
   349   1      11.279999999999999      67.679999999999993      48.879999999999995
   350   1      13.160000000000002      67.679999999999993      50.759999999999998
   351   1      13.160000000000002      69.559999999999974      48.879999999999995
   352   1      11.279999999999999      67.679999999999993      52.640000000000001
   353   1      11.279999999999999      69.559999999999974      54.519999999999996
   354   1      13.160000000000002      67.679999999999993      54.519999999999996
   355   1      13.160000000000002      69.559999999999974      52.640000000000001
   356   1      11.279999999999999      67.679999999999993      56.399999999999999
   357   1      11.279999999999999      69.559999999999974      58.280000000000001
   358   1      13.160000000000002      67.679999999999993      58.280000000000001