model_files/Fe/Fe_30000/Fe_411/data.Fe_411_bcc_29957 (written by ASE) 

29957 	 atoms 
1  atom types
0.0                      68  xlo xhi
0.0                      68  ylo yhi
0.0                      68  zlo zhi


Atoms 

     1   1      1.4349999999999949      30.134999999999991      34.439999999999991
     2   1      1.4349999999999949      31.569999999999993      33.004999999999995
     3   1      1.4349999999999949      33.004999999999995      31.569999999999993
     4   1      1.4349999999999949      31.569999999999993      35.874999999999993
     5   1      1.4349999999999949      33.004999999999995      34.439999999999991
     6   1      1.4349999999999949      33.004999999999995      37.309999999999988
     7   1      1.4349999999999949      34.439999999999991      30.134999999999991
     8   1      1.4349999999999949      34.439999999999991      33.004999999999995
     9   1      1.4349999999999949      35.874999999999993      31.569999999999993
    10   1      67.999999999999986      34.439999999999991      34.439999999999991
    11   1      1.4349999999999949      34.439999999999991      35.874999999999993
    12   1      1.4349999999999949      35.874999999999993      34.439999999999991
    13   1      1.4349999999999949      34.439999999999991       38.74499999999999
    14   1      1.4349999999999949      35.874999999999993      37.309999999999988
    15   1      1.4349999999999949      37.309999999999988      33.004999999999995
    16   1      1.4349999999999949      37.309999999999988      35.874999999999993
    17   1      1.4349999999999949       38.74499999999999      34.439999999999991
    18   1      4.3049999999999926       18.65499999999999      34.439999999999991
    19   1      4.3049999999999926      20.089999999999993      33.004999999999995
    20   1      4.3049999999999926      21.524999999999991      31.569999999999993
    21   1      4.3049999999999926      20.089999999999993      35.874999999999993
    22   1      4.3049999999999926      21.524999999999991      34.439999999999991
    23   1      4.3049999999999926      21.524999999999991      37.309999999999988
    24   1      4.3049999999999926      22.959999999999994      30.134999999999991
    25   1      4.3049999999999926      24.394999999999992      28.699999999999992
    26   1      2.8699999999999939      24.394999999999992      33.004999999999995
    27   1      4.3049999999999926      22.959999999999994      33.004999999999995
    28   1      4.3049999999999926      24.394999999999992      31.569999999999993
    29   1      2.8699999999999939      22.959999999999994      34.439999999999991
    30   1      2.8699999999999939      24.394999999999992      35.874999999999993
    31   1      4.3049999999999926      22.959999999999994      35.874999999999993
    32   1      4.3049999999999926      24.394999999999992      34.439999999999991
    33   1      4.3049999999999926      22.959999999999994       38.74499999999999
    34   1      4.3049999999999926      24.394999999999992      37.309999999999988
    35   1      4.3049999999999926      24.394999999999992      40.179999999999986
    36   1      4.3049999999999926      25.829999999999991      27.264999999999986
    37   1      4.3049999999999926      27.264999999999986      25.829999999999991
    38   1      2.8699999999999939      27.264999999999986      30.134999999999991
    39   1      4.3049999999999926      25.829999999999991      30.134999999999991
    40   1      4.3049999999999926      27.264999999999986      28.699999999999992
    41   1      2.8699999999999939      25.829999999999991      31.569999999999993
    42   1      2.8699999999999939      27.264999999999986      33.004999999999995
    43   1      4.3049999999999926      25.829999999999991      33.004999999999995
    44   1      4.3049999999999926      27.264999999999986      31.569999999999993
    45   1      2.8699999999999939      25.829999999999991      34.439999999999991
    46   1      2.8699999999999939      27.264999999999986      35.874999999999993
    47   1      4.3049999999999926      25.829999999999991      35.874999999999993
    48   1      4.3049999999999926      27.264999999999986      34.439999999999991
    49   1      2.8699999999999939      25.829999999999991      37.309999999999988
    50   1      2.8699999999999939      27.264999999999986       38.74499999999999
    51   1      4.3049999999999926      25.829999999999991       38.74499999999999
    52   1      4.3049999999999926      27.264999999999986      37.309999999999988
    53   1      4.3049999999999926      25.829999999999991      41.614999999999995
    54   1      4.3049999999999926      27.264999999999986      40.179999999999986
    55   1      4.3049999999999926      27.264999999999986       43.04999999999999
    56   1      4.3049999999999926      28.699999999999992      24.394999999999992
    57   1      4.3049999999999926      30.134999999999991      22.959999999999994
    58   1      2.8699999999999939      30.134999999999991      27.264999999999986
    59   1      4.3049999999999926      28.699999999999992      27.264999999999986
    60   1      4.3049999999999926      30.134999999999991      25.829999999999991
    61   1      2.8699999999999939      28.699999999999992      28.699999999999992
    62   1      2.8699999999999939      30.134999999999991      30.134999999999991
    63   1      4.3049999999999926      28.699999999999992      30.134999999999991
    64   1      4.3049999999999926      30.134999999999991      28.699999999999992
    65   1      2.8699999999999939      28.699999999999992      31.569999999999993
    66   1      2.8699999999999939      30.134999999999991      33.004999999999995
    67   1      4.3049999999999926      28.699999999999992      33.004999999999995
    68   1      4.3049999999999926      30.134999999999991      31.569999999999993
    69   1      2.8699999999999939      28.699999999999992      34.439999999999991
    70   1      2.8699999999999939      30.134999999999991      35.874999999999993
    71   1      4.3049999999999926      28.699999999999992      35.874999999999993
    72   1      4.3049999999999926      30.134999999999991      34.439999999999991
    73   1      2.8699999999999939      28.699999999999992      37.309999999999988
    74   1      2.8699999999999939      30.134999999999991       38.74499999999999
    75   1      4.3049999999999926      28.699999999999992       38.74499999999999
    76   1      4.3049999999999926      30.134999999999991      37.309999999999988
    77   1      2.8699999999999939      28.699999999999992      40.179999999999986
    78   1      2.8699999999999939      30.134999999999991      41.614999999999995
    79   1      4.3049999999999926      28.699999999999992      41.614999999999995
    80   1      4.3049999999999926      30.134999999999991      40.179999999999986
    81   1      4.3049999999999926      28.699999999999992      44.484999999999992
    82   1      4.3049999999999926      30.134999999999991       43.04999999999999
    83   1      4.3049999999999926      30.134999999999991      45.919999999999987
    84   1      4.3049999999999926      31.569999999999993      21.524999999999991
    85   1      4.3049999999999926      33.004999999999995      20.089999999999993
    86   1      2.8699999999999939      33.004999999999995      24.394999999999992
    87   1      4.3049999999999926      31.569999999999993      24.394999999999992
    88   1      4.3049999999999926      33.004999999999995      22.959999999999994
    89   1      2.8699999999999939      31.569999999999993      25.829999999999991
    90   1      2.8699999999999939      33.004999999999995      27.264999999999986
    91   1      4.3049999999999926      31.569999999999993      27.264999999999986
    92   1      4.3049999999999926      33.004999999999995      25.829999999999991
    93   1      2.8699999999999939      31.569999999999993      28.699999999999992
    94   1      2.8699999999999939      33.004999999999995      30.134999999999991
    95   1      4.3049999999999926      31.569999999999993      30.134999999999991
    96   1      4.3049999999999926      33.004999999999995      28.699999999999992
    97   1      2.8699999999999939      31.569999999999993      31.569999999999993
    98   1      2.8699999999999939      33.004999999999995      33.004999999999995
    99   1      4.3049999999999926      31.569999999999993      33.004999999999995
   100   1      4.3049999999999926      33.004999999999995      31.569999999999993
   101   1      2.8699999999999939      31.569999999999993      34.439999999999991
   102   1      2.8699999999999939      33.004999999999995      35.874999999999993
   103   1      4.3049999999999926      31.569999999999993      35.874999999999993
   104   1      4.3049999999999926      33.004999999999995      34.439999999999991
   105   1      2.8699999999999939      31.569999999999993      37.309999999999988
   106   1      2.8699999999999939      33.004999999999995       38.74499999999999
   107   1      4.3049999999999926      31.569999999999993       38.74499999999999
   108   1      4.3049999999999926      33.004999999999995      37.309999999999988
   109   1      2.8699999999999939      31.569999999999993      40.179999999999986
   110   1      2.8699999999999939      33.004999999999995      41.614999999999995
   111   1      4.3049999999999926      31.569999999999993      41.614999999999995
   112   1      4.3049999999999926      33.004999999999995      40.179999999999986
   113   1      2.8699999999999939      31.569999999999993       43.04999999999999
   114   1      2.8699999999999939      33.004999999999995      44.484999999999992
   115   1      4.3049999999999926      31.569999999999993      44.484999999999992
   116   1      4.3049999999999926      33.004999999999995       43.04999999999999
   117   1      4.3049999999999926      31.569999999999993      47.354999999999983
   118   1      4.3049999999999926      33.004999999999995      45.919999999999987
   119   1      4.3049999999999926      33.004999999999995      48.789999999999992
   120   1      4.3049999999999926      34.439999999999991       18.65499999999999
   121   1      4.3049999999999926      34.439999999999991      21.524999999999991
   122   1      4.3049999999999926      35.874999999999993      20.089999999999993
   123   1      2.8699999999999939      34.439999999999991      22.959999999999994
   124   1      2.8699999999999939      35.874999999999993      24.394999999999992
   125   1      4.3049999999999926      34.439999999999991      24.394999999999992
   126   1      4.3049999999999926      35.874999999999993      22.959999999999994
   127   1      2.8699999999999939      34.439999999999991      25.829999999999991
   128   1      2.8699999999999939      35.874999999999993      27.264999999999986
   129   1      4.3049999999999926      34.439999999999991      27.264999999999986
   130   1      4.3049999999999926      35.874999999999993      25.829999999999991
   131   1      2.8699999999999939      34.439999999999991      28.699999999999992
   132   1      2.8699999999999939      35.874999999999993      30.134999999999991
   133   1      4.3049999999999926      34.439999999999991      30.134999999999991
   134   1      4.3049999999999926      35.874999999999993      28.699999999999992
   135   1      2.8699999999999939      34.439999999999991      31.569999999999993
   136   1      2.8699999999999939      35.874999999999993      33.004999999999995
   137   1      4.3049999999999926      34.439999999999991      33.004999999999995
   138   1      4.3049999999999926      35.874999999999993      31.569999999999993
   139   1      2.8699999999999939      34.439999999999991      34.439999999999991
   140   1      2.8699999999999939      35.874999999999993      35.874999999999993
   141   1      4.3049999999999926      34.439999999999991      35.874999999999993
   142   1      4.3049999999999926      35.874999999999993      34.439999999999991
   143   1      2.8699999999999939      34.439999999999991      37.309999999999988
   144   1      2.8699999999999939      35.874999999999993       38.74499999999999
   145   1      4.3049999999999926      34.439999999999991       38.74499999999999
   146   1      4.3049999999999926      35.874999999999993      37.309999999999988
   147   1      2.8699999999999939      34.439999999999991      40.179999999999986
   148   1      2.8699999999999939      35.874999999999993      41.614999999999995
   149   1      4.3049999999999926      34.439999999999991      41.614999999999995
   150   1      4.3049999999999926      35.874999999999993      40.179999999999986
   151   1      2.8699999999999939      34.439999999999991       43.04999999999999
   152   1      2.8699999999999939      35.874999999999993      44.484999999999992
   153   1      4.3049999999999926      34.439999999999991      44.484999999999992
   154   1      4.3049999999999926      35.874999999999993       43.04999999999999
   155   1      2.8699999999999939      34.439999999999991      45.919999999999987
   156   1      4.3049999999999926      34.439999999999991      47.354999999999983
   157   1      4.3049999999999926      35.874999999999993      45.919999999999987
   158   1      4.3049999999999926      34.439999999999991      50.224999999999994
   159   1      4.3049999999999926      35.874999999999993      48.789999999999992
   160   1      4.3049999999999926      37.309999999999988      21.524999999999991
   161   1      4.3049999999999926      37.309999999999988      24.394999999999992
   162   1      4.3049999999999926       38.74499999999999      22.959999999999994
   163   1      2.8699999999999939      37.309999999999988      25.829999999999991
   164   1      2.8699999999999939       38.74499999999999      27.264999999999986
   165   1      4.3049999999999926      37.309999999999988      27.264999999999986
   166   1      4.3049999999999926       38.74499999999999      25.829999999999991
   167   1      2.8699999999999939      37.309999999999988      28.699999999999992
   168   1      2.8699999999999939       38.74499999999999      30.134999999999991
   169   1      4.3049999999999926      37.309999999999988      30.134999999999991
   170   1      4.3049999999999926       38.74499999999999      28.699999999999992
   171   1      2.8699999999999939      37.309999999999988      31.569999999999993
   172   1      2.8699999999999939       38.74499999999999      33.004999999999995
   173   1      4.3049999999999926      37.309999999999988      33.004999999999995
   174   1      4.3049999999999926       38.74499999999999      31.569999999999993
   175   1      2.8699999999999939      37.309999999999988      34.439999999999991
   176   1      2.8699999999999939       38.74499999999999      35.874999999999993
   177   1      4.3049999999999926      37.309999999999988      35.874999999999993
   178   1      4.3049999999999926       38.74499999999999      34.439999999999991
   179   1      2.8699999999999939      37.309999999999988      37.309999999999988
   180   1      2.8699999999999939       38.74499999999999       38.74499999999999
   181   1      4.3049999999999926      37.309999999999988       38.74499999999999
   182   1      4.3049999999999926       38.74499999999999      37.309999999999988
   183   1      2.8699999999999939      37.309999999999988      40.179999999999986
   184   1      2.8699999999999939       38.74499999999999      41.614999999999995
   185   1      4.3049999999999926      37.309999999999988      41.614999999999995
   186   1      4.3049999999999926       38.74499999999999      40.179999999999986
   187   1      2.8699999999999939      37.309999999999988       43.04999999999999
   188   1      4.3049999999999926      37.309999999999988      44.484999999999992
   189   1      4.3049999999999926       38.74499999999999       43.04999999999999
   190   1      4.3049999999999926      37.309999999999988      47.354999999999983
   191   1      4.3049999999999926       38.74499999999999      45.919999999999987
   192   1      4.3049999999999926      40.179999999999986      24.394999999999992
   193   1      4.3049999999999926      40.179999999999986      27.264999999999986
   194   1      4.3049999999999926      41.614999999999995      25.829999999999991
   195   1      2.8699999999999939      40.179999999999986      28.699999999999992
   196   1      2.8699999999999939      41.614999999999995      30.134999999999991
   197   1      4.3049999999999926      40.179999999999986      30.134999999999991
   198   1      4.3049999999999926      41.614999999999995      28.699999999999992
   199   1      2.8699999999999939      40.179999999999986      31.569999999999993
   200   1      2.8699999999999939      41.614999999999995      33.004999999999995
   201   1      4.3049999999999926      40.179999999999986      33.004999999999995
   202   1      4.3049999999999926      41.614999999999995      31.569999999999993
   203   1      2.8699999999999939      40.179999999999986      34.439999999999991
   204   1      2.8699999999999939      41.614999999999995      35.874999999999993
   205   1      4.3049999999999926      40.179999999999986      35.874999999999993
   206   1      4.3049999999999926      41.614999999999995      34.439999999999991
   207   1      2.8699999999999939      40.179999999999986      37.309999999999988
   208   1      2.8699999999999939      41.614999999999995       38.74499999999999
   209   1      4.3049999999999926      40.179999999999986       38.74499999999999
   210   1      4.3049999999999926      41.614999999999995      37.309999999999988
   211   1      2.8699999999999939      40.179999999999986      40.179999999999986
   212   1      4.3049999999999926      40.179999999999986      41.614999999999995
   213   1      4.3049999999999926      41.614999999999995      40.179999999999986
   214   1      4.3049999999999926      40.179999999999986      44.484999999999992
   215   1      4.3049999999999926      41.614999999999995       43.04999999999999
   216   1      4.3049999999999926       43.04999999999999      27.264999999999986
   217   1      4.3049999999999926       43.04999999999999      30.134999999999991
   218   1      4.3049999999999926      44.484999999999992      28.699999999999992
   219   1      2.8699999999999939       43.04999999999999      31.569999999999993
   220   1      2.8699999999999939      44.484999999999992      33.004999999999995
   221   1      4.3049999999999926       43.04999999999999      33.004999999999995
   222   1      4.3049999999999926      44.484999999999992      31.569999999999993
   223   1      2.8699999999999939       43.04999999999999      34.439999999999991
   224   1      2.8699999999999939      44.484999999999992      35.874999999999993
   225   1      4.3049999999999926       43.04999999999999      35.874999999999993
   226   1      4.3049999999999926      44.484999999999992      34.439999999999991
   227   1      2.8699999999999939       43.04999999999999      37.309999999999988
   228   1      4.3049999999999926       43.04999999999999       38.74499999999999
   229   1      4.3049999999999926      44.484999999999992      37.309999999999988
   230   1      4.3049999999999926       43.04999999999999      41.614999999999995
   231   1      4.3049999999999926      44.484999999999992      40.179999999999986
   232   1      4.3049999999999926      45.919999999999987      30.134999999999991
   233   1      4.3049999999999926      45.919999999999987      33.004999999999995
   234   1      4.3049999999999926      47.354999999999983      31.569999999999993
   235   1      2.8699999999999939      45.919999999999987      34.439999999999991
   236   1      4.3049999999999926      45.919999999999987      35.874999999999993
   237   1      4.3049999999999926      47.354999999999983      34.439999999999991
   238   1      4.3049999999999926      45.919999999999987       38.74499999999999
   239   1      4.3049999999999926      47.354999999999983      37.309999999999988
   240   1      4.3049999999999926      48.789999999999992      33.004999999999995
   241   1      4.3049999999999926      48.789999999999992      35.874999999999993
   242   1      4.3049999999999926      50.224999999999994      34.439999999999991
   243   1      7.1749999999999972      7.1749999999999972      34.439999999999991
   244   1      7.1749999999999972      8.6099999999999923      33.004999999999995
   245   1      7.1749999999999972      10.044999999999995      31.569999999999993
   246   1      7.1749999999999972      8.6099999999999923      35.874999999999993
   247   1      7.1749999999999972      10.044999999999995      34.439999999999991
   248   1      7.1749999999999972      10.044999999999995      37.309999999999988
   249   1      7.1749999999999972      11.479999999999993      30.134999999999991
   250   1      7.1749999999999972      12.914999999999992      28.699999999999992
   251   1      5.7399999999999949      12.914999999999992      33.004999999999995
   252   1      7.1749999999999972      11.479999999999993      33.004999999999995
   253   1      7.1749999999999972      12.914999999999992      31.569999999999993
   254   1      5.7399999999999949      11.479999999999993      34.439999999999991
   255   1      5.7399999999999949      12.914999999999992      35.874999999999993
   256   1      7.1749999999999972      11.479999999999993      35.874999999999993
   257   1      7.1749999999999972      12.914999999999992      34.439999999999991
   258   1      7.1749999999999972      11.479999999999993       38.74499999999999
   259   1      7.1749999999999972      12.914999999999992      37.309999999999988
   260   1      7.1749999999999972      12.914999999999992      40.179999999999986
   261   1      7.1749999999999972      14.349999999999994      27.264999999999986
   262   1      7.1749999999999972      15.784999999999993      25.829999999999991
   263   1      5.7399999999999949      15.784999999999993      30.134999999999991
   264   1      7.1749999999999972      14.349999999999994      30.134999999999991
   265   1      7.1749999999999972      15.784999999999993      28.699999999999992
   266   1      5.7399999999999949      14.349999999999994      31.569999999999993
   267   1      5.7399999999999949      15.784999999999993      33.004999999999995
   268   1      7.1749999999999972      14.349999999999994      33.004999999999995
   269   1      7.1749999999999972      15.784999999999993      31.569999999999993
   270   1      5.7399999999999949      14.349999999999994      34.439999999999991
   271   1      5.7399999999999949      15.784999999999993      35.874999999999993
   272   1      7.1749999999999972      14.349999999999994      35.874999999999993
   273   1      7.1749999999999972      15.784999999999993      34.439999999999991
   274   1      5.7399999999999949      14.349999999999994      37.309999999999988
   275   1      5.7399999999999949      15.784999999999993       38.74499999999999
   276   1      7.1749999999999972      14.349999999999994       38.74499999999999
   277   1      7.1749999999999972      15.784999999999993      37.309999999999988
   278   1      7.1749999999999972      14.349999999999994      41.614999999999995
   279   1      7.1749999999999972      15.784999999999993      40.179999999999986
   280   1      7.1749999999999972      15.784999999999993       43.04999999999999
   281   1      7.1749999999999972      17.219999999999992      24.394999999999992
   282   1      7.1749999999999972       18.65499999999999      22.959999999999994
   283   1      5.7399999999999949       18.65499999999999      27.264999999999986
   284   1      7.1749999999999972      17.219999999999992      27.264999999999986
   285   1      7.1749999999999972       18.65499999999999      25.829999999999991
   286   1      5.7399999999999949      17.219999999999992      28.699999999999992
   287   1      5.7399999999999949       18.65499999999999      30.134999999999991
   288   1      7.1749999999999972      17.219999999999992      30.134999999999991
   289   1      7.1749999999999972       18.65499999999999      28.699999999999992
   290   1      5.7399999999999949      17.219999999999992      31.569999999999993
   291   1      5.7399999999999949       18.65499999999999      33.004999999999995
   292   1      7.1749999999999972      17.219999999999992      33.004999999999995
   293   1      7.1749999999999972       18.65499999999999      31.569999999999993
   294   1      5.7399999999999949      17.219999999999992      34.439999999999991
   295   1      5.7399999999999949       18.65499999999999      35.874999999999993
   296   1      7.1749999999999972      17.219999999999992      35.874999999999993
   297   1      7.1749999999999972       18.65499999999999      34.439999999999991
   298   1      5.7399999999999949      17.219999999999992      37.309999999999988
   299   1      5.7399999999999949       18.65499999999999       38.74499999999999
   300   1      7.1749999999999972      17.219999999999992       38.74499999999999
   301   1      7.1749999999999972       18.65499999999999      37.309999999999988
   302   1      5.7399999999999949      17.219999999999992      40.179999999999986
   303   1      5.7399999999999949       18.65499999999999      41.614999999999995
   304   1      7.1749999999999972      17.219999999999992      41.614999999999995
   305   1      7.1749999999999972       18.65499999999999      40.179999999999986
   306   1      7.1749999999999972      17.219999999999992      44.484999999999992
   307   1      7.1749999999999972       18.65499999999999       43.04999999999999
   308   1      7.1749999999999972       18.65499999999999      45.919999999999987
   309   1      7.1749999999999972      20.089999999999993      21.524999999999991
   310   1      7.1749999999999972      21.524999999999991      20.089999999999993
   311   1      5.7399999999999949      21.524999999999991      24.394999999999992
   312   1      7.1749999999999972      20.089999999999993      24.394999999999992
   313   1      7.1749999999999972      21.524999999999991      22.959999999999994
   314   1      5.7399999999999949      20.089999999999993      25.829999999999991
   315   1      5.7399999999999949      21.524999999999991      27.264999999999986
   316   1      7.1749999999999972      20.089999999999993      27.264999999999986
   317   1      7.1749999999999972      21.524999999999991      25.829999999999991
   318   1      5.7399999999999949      20.089999999999993      28.699999999999992
   319   1      5.7399999999999949      21.524999999999991      30.134999999999991
   320   1      7.1749999999999972      20.089999999999993      30.134999999999991
   321   1      7.1749999999999972      21.524999999999991      28.699999999999992
   322   1      5.7399999999999949      20.089999999999993      31.569999999999993
   323   1      5.7399999999999949      21.524999999999991      33.004999999999995
   324   1      7.1749999999999972      20.089999999999993      33.004999999999995
   325   1      7.1749999999999972      21.524999999999991      31.569999999999993
   326   1      5.7399999999999949      20.089999999999993      34.439999999999991
   327   1      5.7399999999999949      21.524999999999991      35.874999999999993
   328   1      7.1749999999999972      20.089999999999993      35.874999999999993
   329   1      7.1749999999999972      21.524999999999991      34.439999999999991
   330   1      5.7399999999999949      20.089999999999993      37.309999999999988
   331   1      5.7399999999999949      21.524999999999991       38.74499999999999
   332   1      7.1749999999999972      20.089999999999993       38.74499999999999
   333   1      7.1749999999999972      21.524999999999991      37.309999999999988
   334   1      5.7399999999999949      20.089999999999993      40.179999999999986
   335   1      5.7399999999999949      21.524999999999991      41.614999999999995
   336   1      7.1749999999999972      20.089999999999993      41.614999999999995
   337   1      7.1749999999999972      21.524999999999991      40.179999999999986
   338   1      5.7399999999999949      20.089999999999993       43.04999999999999
   339   1      5.7399999999999949      21.524999999999991      44.484999999999992
   340   1      7.1749999999999972      20.089999999999993      44.484999999999992
   341   1      7.1749999999999972      21.524999999999991       43.04999999999999
   342   1      7.1749999999999972      20.089999999999993      47.354999999999983
   343   1      7.1749999999999972      21.524999999999991      45.919999999999987
   344   1      7.1749999999999972      21.524999999999991      48.789999999999992
   345   1      7.1749999999999972      22.959999999999994       18.65499999999999
   346   1      7.1749999999999972      24.394999999999992      17.219999999999992
   347   1      5.7399999999999949      24.394999999999992      21.524999999999991
   348   1      7.1749999999999972      22.959999999999994      21.524999999999991
   349   1      7.1749999999999972      24.394999999999992      20.089999999999993
   350   1      5.7399999999999949      22.959999999999994      22.959999999999994
   351   1      5.7399999999999949      24.394999999999992      24.394999999999992
   352   1      7.1749999999999972      22.959999999999994      24.394999999999992
   353   1      7.1749999999999972      24.394999999999992      22.959999999999994
   354   1      5.7399999999999949      22.959999999999994      25.829999999999991
   355   1      5.7399999999999949      24.394999999999992      27.264999999999986
   356   1      7.1749999999999972      22.959999999999994      27.264999999999986
   357   1      7.1749999999999972      24.394999999999992      25.829999999999991
   358   1      5.7399999999999949      22.959999999999994      28.699999999999992