model_files/Fe/Fe_30000/Fe_311/data.Fe_311_bcc_30453 (written by ASE) 

30453 	 atoms 
1  atom types
0.0                      73  xlo xhi
0.0                      73  ylo yhi
0.0                      73  zlo zhi


Atoms 

     1   1                       0      34.439999999999998      35.874999999999993
     2   1                       0      35.874999999999993      34.439999999999998
     3   1                       0      35.874999999999993      37.309999999999995
     4   1                       0      37.309999999999995      35.874999999999993
     5   1      2.8699999999999974      25.829999999999995      35.874999999999993
     6   1      2.8699999999999974       27.26499999999999      34.439999999999998
     7   1      2.8699999999999974      28.699999999999992      33.004999999999995
     8   1      2.8699999999999974       27.26499999999999      37.309999999999995
     9   1      2.8699999999999974      28.699999999999992      35.874999999999993
    10   1      2.8699999999999974      28.699999999999992      38.744999999999983
    11   1      2.8699999999999974      30.134999999999991      31.569999999999993
    12   1      2.8699999999999974      31.569999999999993      30.134999999999991
    13   1      1.4349999999999952      31.569999999999993      34.439999999999998
    14   1      2.8699999999999974      30.134999999999991      34.439999999999998
    15   1      2.8699999999999974      31.569999999999993      33.004999999999995
    16   1      1.4349999999999952      30.134999999999991      35.874999999999993
    17   1      1.4349999999999952      31.569999999999993      37.309999999999995
    18   1      2.8699999999999974      30.134999999999991      37.309999999999995
    19   1      2.8699999999999974      31.569999999999993      35.874999999999993
    20   1      2.8699999999999974      30.134999999999991      40.179999999999986
    21   1      2.8699999999999974      31.569999999999993      38.744999999999983
    22   1      2.8699999999999974      31.569999999999993      41.614999999999995
    23   1      2.8699999999999974      33.004999999999995      28.699999999999992
    24   1      2.8699999999999974      34.439999999999998       27.26499999999999
    25   1      1.4349999999999952      34.439999999999998      31.569999999999993
    26   1      2.8699999999999974      33.004999999999995      31.569999999999993
    27   1      2.8699999999999974      34.439999999999998      30.134999999999991
    28   1      1.4349999999999952      33.004999999999995      33.004999999999995
    29   1      1.4349999999999952      34.439999999999998      34.439999999999998
    30   1      2.8699999999999974      33.004999999999995      34.439999999999998
    31   1      2.8699999999999974      34.439999999999998      33.004999999999995
    32   1      1.4349999999999952      33.004999999999995      35.874999999999993
    33   1      1.4349999999999952      34.439999999999998      37.309999999999995
    34   1      2.8699999999999974      33.004999999999995      37.309999999999995
    35   1      2.8699999999999974      34.439999999999998      35.874999999999993
    36   1      1.4349999999999952      33.004999999999995      38.744999999999983
    37   1      1.4349999999999952      34.439999999999998      40.179999999999986
    38   1      2.8699999999999974      33.004999999999995      40.179999999999986
    39   1      2.8699999999999974      34.439999999999998      38.744999999999983
    40   1      2.8699999999999974      33.004999999999995      43.049999999999997
    41   1      2.8699999999999974      34.439999999999998      41.614999999999995
    42   1      2.8699999999999974      34.439999999999998      44.484999999999985
    43   1      2.8699999999999974      35.874999999999993      25.829999999999995
    44   1      2.8699999999999974      35.874999999999993      28.699999999999992
    45   1      2.8699999999999974      37.309999999999995       27.26499999999999
    46   1      1.4349999999999952      35.874999999999993      30.134999999999991
    47   1      1.4349999999999952      37.309999999999995      31.569999999999993
    48   1      2.8699999999999974      35.874999999999993      31.569999999999993
    49   1      2.8699999999999974      37.309999999999995      30.134999999999991
    50   1      1.4349999999999952      35.874999999999993      33.004999999999995
    51   1      1.4349999999999952      37.309999999999995      34.439999999999998
    52   1      2.8699999999999974      35.874999999999993      34.439999999999998
    53   1      2.8699999999999974      37.309999999999995      33.004999999999995
    54   1      1.4349999999999952      35.874999999999993      35.874999999999993
    55   1      1.4349999999999952      37.309999999999995      37.309999999999995
    56   1      2.8699999999999974      35.874999999999993      37.309999999999995
    57   1      2.8699999999999974      37.309999999999995      35.874999999999993
    58   1      1.4349999999999952      35.874999999999993      38.744999999999983
    59   1      1.4349999999999952      37.309999999999995      40.179999999999986
    60   1      2.8699999999999974      35.874999999999993      40.179999999999986
    61   1      2.8699999999999974      37.309999999999995      38.744999999999983
    62   1      1.4349999999999952      35.874999999999993      41.614999999999995
    63   1      2.8699999999999974      35.874999999999993      43.049999999999997
    64   1      2.8699999999999974      37.309999999999995      41.614999999999995
    65   1      2.8699999999999974      35.874999999999993      45.919999999999987
    66   1      2.8699999999999974      37.309999999999995      44.484999999999985
    67   1      2.8699999999999974      38.744999999999983      28.699999999999992
    68   1      2.8699999999999974      38.744999999999983      31.569999999999993
    69   1      2.8699999999999974      40.179999999999986      30.134999999999991
    70   1      1.4349999999999952      38.744999999999983      33.004999999999995
    71   1      1.4349999999999952      40.179999999999986      34.439999999999998
    72   1      2.8699999999999974      38.744999999999983      34.439999999999998
    73   1      2.8699999999999974      40.179999999999986      33.004999999999995
    74   1      1.4349999999999952      38.744999999999983      35.874999999999993
    75   1      1.4349999999999952      40.179999999999986      37.309999999999995
    76   1      2.8699999999999974      38.744999999999983      37.309999999999995
    77   1      2.8699999999999974      40.179999999999986      35.874999999999993
    78   1      1.4349999999999952      38.744999999999983      38.744999999999983
    79   1      2.8699999999999974      38.744999999999983      40.179999999999986
    80   1      2.8699999999999974      40.179999999999986      38.744999999999983
    81   1      2.8699999999999974      38.744999999999983      43.049999999999997
    82   1      2.8699999999999974      40.179999999999986      41.614999999999995
    83   1      2.8699999999999974      41.614999999999995      31.569999999999993
    84   1      2.8699999999999974      41.614999999999995      34.439999999999998
    85   1      2.8699999999999974      43.049999999999997      33.004999999999995
    86   1      1.4349999999999952      41.614999999999995      35.874999999999993
    87   1      2.8699999999999974      41.614999999999995      37.309999999999995
    88   1      2.8699999999999974      43.049999999999997      35.874999999999993
    89   1      2.8699999999999974      41.614999999999995      40.179999999999986
    90   1      2.8699999999999974      43.049999999999997      38.744999999999983
    91   1      2.8699999999999974      44.484999999999985      34.439999999999998
    92   1      2.8699999999999974      44.484999999999985      37.309999999999995
    93   1      2.8699999999999974      45.919999999999987      35.874999999999993
    94   1      5.7399999999999949      17.219999999999995      35.874999999999993
    95   1      5.7399999999999949      18.654999999999994      34.439999999999998
    96   1      5.7399999999999949      20.089999999999993      33.004999999999995
    97   1      5.7399999999999949      18.654999999999994      37.309999999999995
    98   1      5.7399999999999949      20.089999999999993      35.874999999999993
    99   1      5.7399999999999949      20.089999999999993      38.744999999999983
   100   1      5.7399999999999949      21.524999999999995      31.569999999999993
   101   1      5.7399999999999949      22.959999999999994      30.134999999999991
   102   1      4.3049999999999962      22.959999999999994      34.439999999999998
   103   1      5.7399999999999949      21.524999999999995      34.439999999999998
   104   1      5.7399999999999949      22.959999999999994      33.004999999999995
   105   1      4.3049999999999962      21.524999999999995      35.874999999999993
   106   1      4.3049999999999962      22.959999999999994      37.309999999999995
   107   1      5.7399999999999949      21.524999999999995      37.309999999999995
   108   1      5.7399999999999949      22.959999999999994      35.874999999999993
   109   1      5.7399999999999949      21.524999999999995      40.179999999999986
   110   1      5.7399999999999949      22.959999999999994      38.744999999999983
   111   1      5.7399999999999949      22.959999999999994      41.614999999999995
   112   1      5.7399999999999949      24.394999999999996      28.699999999999992
   113   1      5.7399999999999949      25.829999999999995       27.26499999999999
   114   1      4.3049999999999962      25.829999999999995      31.569999999999993
   115   1      5.7399999999999949      24.394999999999996      31.569999999999993
   116   1      5.7399999999999949      25.829999999999995      30.134999999999991
   117   1      4.3049999999999962      24.394999999999996      33.004999999999995
   118   1      4.3049999999999962      25.829999999999995      34.439999999999998
   119   1      5.7399999999999949      24.394999999999996      34.439999999999998
   120   1      5.7399999999999949      25.829999999999995      33.004999999999995
   121   1      4.3049999999999962      24.394999999999996      35.874999999999993
   122   1      4.3049999999999962      25.829999999999995      37.309999999999995
   123   1      5.7399999999999949      24.394999999999996      37.309999999999995
   124   1      5.7399999999999949      25.829999999999995      35.874999999999993
   125   1      4.3049999999999962      24.394999999999996      38.744999999999983
   126   1      4.3049999999999962      25.829999999999995      40.179999999999986
   127   1      5.7399999999999949      24.394999999999996      40.179999999999986
   128   1      5.7399999999999949      25.829999999999995      38.744999999999983
   129   1      5.7399999999999949      24.394999999999996      43.049999999999997
   130   1      5.7399999999999949      25.829999999999995      41.614999999999995
   131   1      5.7399999999999949      25.829999999999995      44.484999999999985
   132   1      5.7399999999999949       27.26499999999999      25.829999999999995
   133   1      5.7399999999999949      28.699999999999992      24.394999999999996
   134   1      4.3049999999999962      28.699999999999992      28.699999999999992
   135   1      5.7399999999999949       27.26499999999999      28.699999999999992
   136   1      5.7399999999999949      28.699999999999992       27.26499999999999
   137   1      4.3049999999999962       27.26499999999999      30.134999999999991
   138   1      4.3049999999999962      28.699999999999992      31.569999999999993
   139   1      5.7399999999999949       27.26499999999999      31.569999999999993
   140   1      5.7399999999999949      28.699999999999992      30.134999999999991
   141   1      4.3049999999999962       27.26499999999999      33.004999999999995
   142   1      4.3049999999999962      28.699999999999992      34.439999999999998
   143   1      5.7399999999999949       27.26499999999999      34.439999999999998
   144   1      5.7399999999999949      28.699999999999992      33.004999999999995
   145   1      4.3049999999999962       27.26499999999999      35.874999999999993
   146   1      4.3049999999999962      28.699999999999992      37.309999999999995
   147   1      5.7399999999999949       27.26499999999999      37.309999999999995
   148   1      5.7399999999999949      28.699999999999992      35.874999999999993
   149   1      4.3049999999999962       27.26499999999999      38.744999999999983
   150   1      4.3049999999999962      28.699999999999992      40.179999999999986
   151   1      5.7399999999999949       27.26499999999999      40.179999999999986
   152   1      5.7399999999999949      28.699999999999992      38.744999999999983
   153   1      4.3049999999999962       27.26499999999999      41.614999999999995
   154   1      4.3049999999999962      28.699999999999992      43.049999999999997
   155   1      5.7399999999999949       27.26499999999999      43.049999999999997
   156   1      5.7399999999999949      28.699999999999992      41.614999999999995
   157   1      5.7399999999999949       27.26499999999999      45.919999999999987
   158   1      5.7399999999999949      28.699999999999992      44.484999999999985
   159   1      5.7399999999999949      28.699999999999992       47.35499999999999
   160   1      5.7399999999999949      30.134999999999991      22.959999999999994
   161   1      5.7399999999999949      31.569999999999993      21.524999999999995
   162   1      4.3049999999999962      31.569999999999993      25.829999999999995
   163   1      5.7399999999999949      30.134999999999991      25.829999999999995
   164   1      5.7399999999999949      31.569999999999993      24.394999999999996
   165   1      4.3049999999999962      30.134999999999991       27.26499999999999
   166   1      4.3049999999999962      31.569999999999993      28.699999999999992
   167   1      5.7399999999999949      30.134999999999991      28.699999999999992
   168   1      5.7399999999999949      31.569999999999993       27.26499999999999
   169   1      4.3049999999999962      30.134999999999991      30.134999999999991
   170   1      4.3049999999999962      31.569999999999993      31.569999999999993
   171   1      5.7399999999999949      30.134999999999991      31.569999999999993
   172   1      5.7399999999999949      31.569999999999993      30.134999999999991
   173   1      4.3049999999999962      30.134999999999991      33.004999999999995
   174   1      4.3049999999999962      31.569999999999993      34.439999999999998
   175   1      5.7399999999999949      30.134999999999991      34.439999999999998
   176   1      5.7399999999999949      31.569999999999993      33.004999999999995
   177   1      4.3049999999999962      30.134999999999991      35.874999999999993
   178   1      4.3049999999999962      31.569999999999993      37.309999999999995
   179   1      5.7399999999999949      30.134999999999991      37.309999999999995
   180   1      5.7399999999999949      31.569999999999993      35.874999999999993
   181   1      4.3049999999999962      30.134999999999991      38.744999999999983
   182   1      4.3049999999999962      31.569999999999993      40.179999999999986
   183   1      5.7399999999999949      30.134999999999991      40.179999999999986
   184   1      5.7399999999999949      31.569999999999993      38.744999999999983
   185   1      4.3049999999999962      30.134999999999991      41.614999999999995
   186   1      4.3049999999999962      31.569999999999993      43.049999999999997
   187   1      5.7399999999999949      30.134999999999991      43.049999999999997
   188   1      5.7399999999999949      31.569999999999993      41.614999999999995
   189   1      4.3049999999999962      30.134999999999991      44.484999999999985
   190   1      4.3049999999999962      31.569999999999993      45.919999999999987
   191   1      5.7399999999999949      30.134999999999991      45.919999999999987
   192   1      5.7399999999999949      31.569999999999993      44.484999999999985
   193   1      5.7399999999999949      30.134999999999991      48.789999999999992
   194   1      5.7399999999999949      31.569999999999993       47.35499999999999
   195   1      5.7399999999999949      31.569999999999993      50.224999999999987
   196   1      5.7399999999999949      33.004999999999995      20.089999999999993
   197   1      5.7399999999999949      34.439999999999998      18.654999999999994
   198   1      4.3049999999999962      34.439999999999998      22.959999999999994
   199   1      5.7399999999999949      33.004999999999995      22.959999999999994
   200   1      5.7399999999999949      34.439999999999998      21.524999999999995
   201   1      4.3049999999999962      33.004999999999995      24.394999999999996
   202   1      4.3049999999999962      34.439999999999998      25.829999999999995
   203   1      5.7399999999999949      33.004999999999995      25.829999999999995
   204   1      5.7399999999999949      34.439999999999998      24.394999999999996
   205   1      4.3049999999999962      33.004999999999995       27.26499999999999
   206   1      4.3049999999999962      34.439999999999998      28.699999999999992
   207   1      5.7399999999999949      33.004999999999995      28.699999999999992
   208   1      5.7399999999999949      34.439999999999998       27.26499999999999
   209   1      4.3049999999999962      33.004999999999995      30.134999999999991
   210   1      4.3049999999999962      34.439999999999998      31.569999999999993
   211   1      5.7399999999999949      33.004999999999995      31.569999999999993
   212   1      5.7399999999999949      34.439999999999998      30.134999999999991
   213   1      4.3049999999999962      33.004999999999995      33.004999999999995
   214   1      4.3049999999999962      34.439999999999998      34.439999999999998
   215   1      5.7399999999999949      33.004999999999995      34.439999999999998
   216   1      5.7399999999999949      34.439999999999998      33.004999999999995
   217   1      4.3049999999999962      33.004999999999995      35.874999999999993
   218   1      4.3049999999999962      34.439999999999998      37.309999999999995
   219   1      5.7399999999999949      33.004999999999995      37.309999999999995
   220   1      5.7399999999999949      34.439999999999998      35.874999999999993
   221   1      4.3049999999999962      33.004999999999995      38.744999999999983
   222   1      4.3049999999999962      34.439999999999998      40.179999999999986
   223   1      5.7399999999999949      33.004999999999995      40.179999999999986
   224   1      5.7399999999999949      34.439999999999998      38.744999999999983
   225   1      4.3049999999999962      33.004999999999995      41.614999999999995
   226   1      4.3049999999999962      34.439999999999998      43.049999999999997
   227   1      5.7399999999999949      33.004999999999995      43.049999999999997
   228   1      5.7399999999999949      34.439999999999998      41.614999999999995
   229   1      4.3049999999999962      33.004999999999995      44.484999999999985
   230   1      4.3049999999999962      34.439999999999998      45.919999999999987
   231   1      5.7399999999999949      33.004999999999995      45.919999999999987
   232   1      5.7399999999999949      34.439999999999998      44.484999999999985
   233   1      4.3049999999999962      33.004999999999995       47.35499999999999
   234   1      4.3049999999999962      34.439999999999998      48.789999999999992
   235   1      5.7399999999999949      33.004999999999995      48.789999999999992
   236   1      5.7399999999999949      34.439999999999998       47.35499999999999
   237   1      5.7399999999999949      33.004999999999995      51.659999999999997
   238   1      5.7399999999999949      34.439999999999998      50.224999999999987
   239   1      5.7399999999999949      34.439999999999998      53.094999999999992
   240   1      5.7399999999999949      35.874999999999993      17.219999999999995
   241   1      5.7399999999999949      35.874999999999993      20.089999999999993
   242   1      5.7399999999999949      37.309999999999995      18.654999999999994
   243   1      4.3049999999999962      35.874999999999993      21.524999999999995
   244   1      4.3049999999999962      37.309999999999995      22.959999999999994
   245   1      5.7399999999999949      35.874999999999993      22.959999999999994
   246   1      5.7399999999999949      37.309999999999995      21.524999999999995
   247   1      4.3049999999999962      35.874999999999993      24.394999999999996
   248   1      4.3049999999999962      37.309999999999995      25.829999999999995
   249   1      5.7399999999999949      35.874999999999993      25.829999999999995
   250   1      5.7399999999999949      37.309999999999995      24.394999999999996
   251   1      4.3049999999999962      35.874999999999993       27.26499999999999
   252   1      4.3049999999999962      37.309999999999995      28.699999999999992
   253   1      5.7399999999999949      35.874999999999993      28.699999999999992
   254   1      5.7399999999999949      37.309999999999995       27.26499999999999
   255   1      4.3049999999999962      35.874999999999993      30.134999999999991
   256   1      4.3049999999999962      37.309999999999995      31.569999999999993
   257   1      5.7399999999999949      35.874999999999993      31.569999999999993
   258   1      5.7399999999999949      37.309999999999995      30.134999999999991
   259   1      4.3049999999999962      35.874999999999993      33.004999999999995
   260   1      4.3049999999999962      37.309999999999995      34.439999999999998
   261   1      5.7399999999999949      35.874999999999993      34.439999999999998
   262   1      5.7399999999999949      37.309999999999995      33.004999999999995
   263   1      4.3049999999999962      35.874999999999993      35.874999999999993
   264   1      4.3049999999999962      37.309999999999995      37.309999999999995
   265   1      5.7399999999999949      35.874999999999993      37.309999999999995
   266   1      5.7399999999999949      37.309999999999995      35.874999999999993
   267   1      4.3049999999999962      35.874999999999993      38.744999999999983
   268   1      4.3049999999999962      37.309999999999995      40.179999999999986
   269   1      5.7399999999999949      35.874999999999993      40.179999999999986
   270   1      5.7399999999999949      37.309999999999995      38.744999999999983
   271   1      4.3049999999999962      35.874999999999993      41.614999999999995
   272   1      4.3049999999999962      37.309999999999995      43.049999999999997
   273   1      5.7399999999999949      35.874999999999993      43.049999999999997
   274   1      5.7399999999999949      37.309999999999995      41.614999999999995
   275   1      4.3049999999999962      35.874999999999993      44.484999999999985
   276   1      4.3049999999999962      37.309999999999995      45.919999999999987
   277   1      5.7399999999999949      35.874999999999993      45.919999999999987
   278   1      5.7399999999999949      37.309999999999995      44.484999999999985
   279   1      4.3049999999999962      35.874999999999993       47.35499999999999
   280   1      4.3049999999999962      37.309999999999995      48.789999999999992
   281   1      5.7399999999999949      35.874999999999993      48.789999999999992
   282   1      5.7399999999999949      37.309999999999995       47.35499999999999
   283   1      4.3049999999999962      35.874999999999993      50.224999999999987
   284   1      5.7399999999999949      35.874999999999993      51.659999999999997
   285   1      5.7399999999999949      37.309999999999995      50.224999999999987
   286   1      5.7399999999999949      35.874999999999993      54.529999999999987
   287   1      5.7399999999999949      37.309999999999995      53.094999999999992
   288   1      5.7399999999999949      38.744999999999983      20.089999999999993
   289   1      5.7399999999999949      38.744999999999983      22.959999999999994
   290   1      5.7399999999999949      40.179999999999986      21.524999999999995
   291   1      4.3049999999999962      38.744999999999983      24.394999999999996
   292   1      4.3049999999999962      40.179999999999986      25.829999999999995
   293   1      5.7399999999999949      38.744999999999983      25.829999999999995
   294   1      5.7399999999999949      40.179999999999986      24.394999999999996
   295   1      4.3049999999999962      38.744999999999983       27.26499999999999
   296   1      4.3049999999999962      40.179999999999986      28.699999999999992
   297   1      5.7399999999999949      38.744999999999983      28.699999999999992
   298   1      5.7399999999999949      40.179999999999986       27.26499999999999
   299   1      4.3049999999999962      38.744999999999983      30.134999999999991
   300   1      4.3049999999999962      40.179999999999986      31.569999999999993
   301   1      5.7399999999999949      38.744999999999983      31.569999999999993
   302   1      5.7399999999999949      40.179999999999986      30.134999999999991
   303   1      4.3049999999999962      38.744999999999983      33.004999999999995
   304   1      4.3049999999999962      40.179999999999986      34.439999999999998
   305   1      5.7399999999999949      38.744999999999983      34.439999999999998
   306   1      5.7399999999999949      40.179999999999986      33.004999999999995
   307   1      4.3049999999999962      38.744999999999983      35.874999999999993
   308   1      4.3049999999999962      40.179999999999986      37.309999999999995
   309   1      5.7399999999999949      38.744999999999983      37.309999999999995
   310   1      5.7399999999999949      40.179999999999986      35.874999999999993
   311   1      4.3049999999999962      38.744999999999983      38.744999999999983
   312   1      4.3049999999999962      40.179999999999986      40.179999999999986
   313   1      5.7399999999999949      38.744999999999983      40.179999999999986
   314   1      5.7399999999999949      40.179999999999986      38.744999999999983
   315   1      4.3049999999999962      38.744999999999983      41.614999999999995
   316   1      4.3049999999999962      40.179999999999986      43.049999999999997
   317   1      5.7399999999999949      38.744999999999983      43.049999999999997
   318   1      5.7399999999999949      40.179999999999986      41.614999999999995
   319   1      4.3049999999999962      38.744999999999983      44.484999999999985
   320   1      4.3049999999999962      40.179999999999986      45.919999999999987
   321   1      5.7399999999999949      38.744999999999983      45.919999999999987
   322   1      5.7399999999999949      40.179999999999986      44.484999999999985
   323   1      4.3049999999999962      38.744999999999983       47.35499999999999
   324   1      5.7399999999999949      38.744999999999983      48.789999999999992
   325   1      5.7399999999999949      40.179999999999986       47.35499999999999
   326   1      5.7399999999999949      38.744999999999983      51.659999999999997
   327   1      5.7399999999999949      40.179999999999986      50.224999999999987
   328   1      5.7399999999999949      41.614999999999995      22.959999999999994
   329   1      5.7399999999999949      41.614999999999995      25.829999999999995
   330   1      5.7399999999999949      43.049999999999997      24.394999999999996
   331   1      4.3049999999999962      41.614999999999995       27.26499999999999
   332   1      4.3049999999999962      43.049999999999997      28.699999999999992
   333   1      5.7399999999999949      41.614999999999995      28.699999999999992
   334   1      5.7399999999999949      43.049999999999997       27.26499999999999
   335   1      4.3049999999999962      41.614999999999995      30.134999999999991
   336   1      4.3049999999999962      43.049999999999997      31.569999999999993
   337   1      5.7399999999999949      41.614999999999995      31.569999999999993
   338   1      5.7399999999999949      43.049999999999997      30.134999999999991
   339   1      4.3049999999999962      41.614999999999995      33.004999999999995
   340   1      4.3049999999999962      43.049999999999997      34.439999999999998
   341   1      5.7399999999999949      41.614999999999995      34.439999999999998
   342   1      5.7399999999999949      43.049999999999997      33.004999999999995
   343   1      4.3049999999999962      41.614999999999995      35.874999999999993
   344   1      4.3049999999999962      43.049999999999997      37.309999999999995
   345   1      5.7399999999999949      41.614999999999995      37.309999999999995
   346   1      5.7399999999999949      43.049999999999997      35.874999999999993
   347   1      4.3049999999999962      41.614999999999995      38.744999999999983
   348   1      4.3049999999999962      43.049999999999997      40.179999999999986
   349   1      5.7399999999999949      41.614999999999995      40.179999999999986
   350   1      5.7399999999999949      43.049999999999997      38.744999999999983
   351   1      4.3049999999999962      41.614999999999995      41.614999999999995
   352   1      4.3049999999999962      43.049999999999997      43.049999999999997
   353   1      5.7399999999999949      41.614999999999995      43.049999999999997
   354   1      5.7399999999999949      43.049999999999997      41.614999999999995
   355   1      4.3049999999999962      41.614999999999995      44.484999999999985
   356   1      5.7399999999999949      41.614999999999995      45.919999999999987
   357   1      5.7399999999999949      43.049999999999997      44.484999999999985
   358   1      5.7399999999999949      41.614999999999995      48.789999999999992