model_files/PtCu/PtCu_30000/PtCu_542/PtCu_542_fcc_29823_temp.data (written by ASE) 

29823 	 atoms 
2  atom types
0.0                     117  xlo xhi
0.0                     117  ylo yhi
0.0                     117  zlo zhi


Atoms 

     1   1      1.9250000000000045       55.82500000000001      57.750000000000014
     2   1      1.9250000000000045      57.750000000000014       55.82500000000001
     3   1  7.1054273576010019e-15      57.750000000000014      57.750000000000014
     4   1      1.9250000000000045      57.750000000000014      59.675000000000011
     5   1      1.9250000000000045      59.675000000000011      57.750000000000014
     6   1       3.850000000000009      51.975000000000001       55.82500000000001
     7   1      5.7750000000000066      50.050000000000011       55.82500000000001
     8   1      5.7750000000000066      51.975000000000001      53.900000000000013
     9   1       3.850000000000009      51.975000000000001      59.675000000000011
    10   1      5.7750000000000066      50.050000000000011      59.675000000000011
    11   1      5.7750000000000066      51.975000000000001      57.750000000000014
    12   1      5.7750000000000066      51.975000000000001      61.600000000000016
    13   1       3.850000000000009       55.82500000000001      51.975000000000001
    14   1      5.7750000000000066      53.900000000000013      51.975000000000001
    15   1      5.7750000000000066       55.82500000000001      50.050000000000011
    16   1       3.850000000000009      53.900000000000013      53.900000000000013
    17   1       3.850000000000009       55.82500000000001       55.82500000000001
    18   1      5.7750000000000066      53.900000000000013       55.82500000000001
    19   1      5.7750000000000066       55.82500000000001      53.900000000000013
    20   1       3.850000000000009      53.900000000000013      57.750000000000014
    21   1       3.850000000000009       55.82500000000001      59.675000000000011
    22   1      5.7750000000000066      53.900000000000013      59.675000000000011
    23   1      5.7750000000000066       55.82500000000001      57.750000000000014
    24   1       3.850000000000009      53.900000000000013      61.600000000000016
    25   1       3.850000000000009       55.82500000000001      63.525000000000006
    26   1      5.7750000000000066      53.900000000000013      63.525000000000006
    27   1      5.7750000000000066       55.82500000000001      61.600000000000016
    28   1      5.7750000000000066       55.82500000000001      65.450000000000017
    29   1       3.850000000000009      59.675000000000011      51.975000000000001
    30   1      5.7750000000000066      57.750000000000014      51.975000000000001
    31   1      5.7750000000000066      59.675000000000011      50.050000000000011
    32   1       3.850000000000009      57.750000000000014      53.900000000000013
    33   1       3.850000000000009      59.675000000000011       55.82500000000001
    34   1      5.7750000000000066      57.750000000000014       55.82500000000001
    35   1      5.7750000000000066      59.675000000000011      53.900000000000013
    36   1       3.850000000000009      57.750000000000014      57.750000000000014
    37   1       3.850000000000009      59.675000000000011      59.675000000000011
    38   1      5.7750000000000066      57.750000000000014      59.675000000000011
    39   1      5.7750000000000066      59.675000000000011      57.750000000000014
    40   1       3.850000000000009      57.750000000000014      61.600000000000016
    41   1       3.850000000000009      59.675000000000011      63.525000000000006
    42   1      5.7750000000000066      57.750000000000014      63.525000000000006
    43   1      5.7750000000000066      59.675000000000011      61.600000000000016
    44   1      5.7750000000000066      59.675000000000011      65.450000000000017
    45   1      5.7750000000000066      61.600000000000016      51.975000000000001
    46   1       3.850000000000009      61.600000000000016      53.900000000000013
    47   1       3.850000000000009      63.525000000000006       55.82500000000001
    48   1      5.7750000000000066      61.600000000000016       55.82500000000001
    49   1      5.7750000000000066      63.525000000000006      53.900000000000013
    50   1       3.850000000000009      61.600000000000016      57.750000000000014
    51   1       3.850000000000009      63.525000000000006      59.675000000000011
    52   1      5.7750000000000066      61.600000000000016      59.675000000000011
    53   1      5.7750000000000066      63.525000000000006      57.750000000000014
    54   1       3.850000000000009      61.600000000000016      61.600000000000016
    55   1      5.7750000000000066      61.600000000000016      63.525000000000006
    56   1      5.7750000000000066      63.525000000000006      61.600000000000016
    57   1      5.7750000000000066      65.450000000000017       55.82500000000001
    58   1      5.7750000000000066      65.450000000000017      59.675000000000011
    59   1      9.6250000000000089      44.275000000000013      57.750000000000014
    60   1      9.6250000000000089      48.125000000000014      50.050000000000011
    61   1      7.7000000000000099      48.125000000000014       55.82500000000001
    62   1      9.6250000000000089      46.200000000000017       55.82500000000001
    63   1      9.6250000000000089      48.125000000000014      53.900000000000013
    64   1      7.7000000000000099      46.200000000000017      57.750000000000014
    65   1      7.7000000000000099      48.125000000000014      59.675000000000011
    66   1      9.6250000000000089      46.200000000000017      59.675000000000011
    67   1      9.6250000000000089      48.125000000000014      57.750000000000014
    68   1      9.6250000000000089      48.125000000000014      61.600000000000016
    69   1      9.6250000000000089      48.125000000000014      65.450000000000017
    70   1      9.6250000000000089      50.050000000000011      48.125000000000014
    71   1      7.7000000000000099      50.050000000000011      50.050000000000011
    72   1      7.7000000000000099      51.975000000000001      51.975000000000001
    73   1      9.6250000000000089      50.050000000000011      51.975000000000001
    74   1      9.6250000000000089      51.975000000000001      50.050000000000011
    75   1      7.7000000000000099      50.050000000000011      53.900000000000013
    76   1      7.7000000000000099      51.975000000000001       55.82500000000001
    77   1      9.6250000000000089      50.050000000000011       55.82500000000001
    78   1      9.6250000000000089      51.975000000000001      53.900000000000013
    79   1      7.7000000000000099      50.050000000000011      57.750000000000014
    80   1      7.7000000000000099      51.975000000000001      59.675000000000011
    81   1      9.6250000000000089      50.050000000000011      59.675000000000011
    82   1      9.6250000000000089      51.975000000000001      57.750000000000014
    83   1      7.7000000000000099      50.050000000000011      61.600000000000016
    84   1      7.7000000000000099      51.975000000000001      63.525000000000006
    85   1      9.6250000000000089      50.050000000000011      63.525000000000006
    86   1      9.6250000000000089      51.975000000000001      61.600000000000016
    87   1      7.7000000000000099      50.050000000000011      65.450000000000017
    88   1      9.6250000000000089      50.050000000000011      67.375000000000014
    89   1      9.6250000000000089      51.975000000000001      65.450000000000017
    90   1      7.7000000000000099       55.82500000000001      48.125000000000014
    91   1      9.6250000000000089      53.900000000000013      48.125000000000014
    92   1      9.6250000000000089       55.82500000000001      46.200000000000017
    93   1      7.7000000000000099      53.900000000000013      50.050000000000011
    94   1      7.7000000000000099       55.82500000000001      51.975000000000001
    95   1      9.6250000000000089      53.900000000000013      51.975000000000001
    96   1      9.6250000000000089       55.82500000000001      50.050000000000011
    97   1      7.7000000000000099      53.900000000000013      53.900000000000013
    98   1      7.7000000000000099       55.82500000000001       55.82500000000001
    99   1      9.6250000000000089      53.900000000000013       55.82500000000001
   100   1      9.6250000000000089       55.82500000000001      53.900000000000013
   101   1      7.7000000000000099      53.900000000000013      57.750000000000014
   102   1      7.7000000000000099       55.82500000000001      59.675000000000011
   103   1      9.6250000000000089      53.900000000000013      59.675000000000011
   104   1      9.6250000000000089       55.82500000000001      57.750000000000014
   105   1      7.7000000000000099      53.900000000000013      61.600000000000016
   106   1      7.7000000000000099       55.82500000000001      63.525000000000006
   107   1      9.6250000000000089      53.900000000000013      63.525000000000006
   108   1      9.6250000000000089       55.82500000000001      61.600000000000016
   109   1      7.7000000000000099      53.900000000000013      65.450000000000017
   110   1      7.7000000000000099       55.82500000000001      67.375000000000014
   111   1      9.6250000000000089      53.900000000000013      67.375000000000014
   112   1      9.6250000000000089       55.82500000000001      65.450000000000017
   113   1      9.6250000000000089       55.82500000000001      69.300000000000011
   114   1      9.6250000000000089      57.750000000000014      44.275000000000013
   115   1      7.7000000000000099      57.750000000000014      46.200000000000017
   116   1      7.7000000000000099      59.675000000000011      48.125000000000014
   117   1      9.6250000000000089      57.750000000000014      48.125000000000014
   118   1      9.6250000000000089      59.675000000000011      46.200000000000017
   119   1      7.7000000000000099      57.750000000000014      50.050000000000011
   120   1      7.7000000000000099      59.675000000000011      51.975000000000001
   121   1      9.6250000000000089      57.750000000000014      51.975000000000001
   122   1      9.6250000000000089      59.675000000000011      50.050000000000011
   123   1      7.7000000000000099      57.750000000000014      53.900000000000013
   124   1      7.7000000000000099      59.675000000000011       55.82500000000001
   125   1      9.6250000000000089      57.750000000000014       55.82500000000001
   126   1      9.6250000000000089      59.675000000000011      53.900000000000013
   127   1      7.7000000000000099      57.750000000000014      57.750000000000014
   128   1      7.7000000000000099      59.675000000000011      59.675000000000011
   129   1      9.6250000000000089      57.750000000000014      59.675000000000011
   130   1      9.6250000000000089      59.675000000000011      57.750000000000014
   131   1      7.7000000000000099      57.750000000000014      61.600000000000016
   132   1      7.7000000000000099      59.675000000000011      63.525000000000006
   133   1      9.6250000000000089      57.750000000000014      63.525000000000006
   134   1      9.6250000000000089      59.675000000000011      61.600000000000016
   135   1      7.7000000000000099      57.750000000000014      65.450000000000017
   136   1      7.7000000000000099      59.675000000000011      67.375000000000014
   137   1      9.6250000000000089      57.750000000000014      67.375000000000014
   138   1      9.6250000000000089      59.675000000000011      65.450000000000017
   139   1      7.7000000000000099      57.750000000000014      69.300000000000011
   140   1      9.6250000000000089      57.750000000000014      71.225000000000023
   141   1      9.6250000000000089      59.675000000000011      69.300000000000011
   142   1      9.6250000000000089      61.600000000000016      48.125000000000014
   143   1      7.7000000000000099      61.600000000000016      50.050000000000011
   144   1      7.7000000000000099      63.525000000000006      51.975000000000001
   145   1      9.6250000000000089      61.600000000000016      51.975000000000001
   146   1      9.6250000000000089      63.525000000000006      50.050000000000011
   147   1      7.7000000000000099      61.600000000000016      53.900000000000013
   148   1      7.7000000000000099      63.525000000000006       55.82500000000001
   149   1      9.6250000000000089      61.600000000000016       55.82500000000001
   150   1      9.6250000000000089      63.525000000000006      53.900000000000013
   151   1      7.7000000000000099      61.600000000000016      57.750000000000014
   152   1      7.7000000000000099      63.525000000000006      59.675000000000011
   153   1      9.6250000000000089      61.600000000000016      59.675000000000011
   154   1      9.6250000000000089      63.525000000000006      57.750000000000014
   155   1      7.7000000000000099      61.600000000000016      61.600000000000016
   156   1      7.7000000000000099      63.525000000000006      63.525000000000006
   157   1      9.6250000000000089      61.600000000000016      63.525000000000006
   158   1      9.6250000000000089      63.525000000000006      61.600000000000016
   159   1      7.7000000000000099      61.600000000000016      65.450000000000017
   160   1      9.6250000000000089      61.600000000000016      67.375000000000014
   161   1      9.6250000000000089      63.525000000000006      65.450000000000017
   162   1      9.6250000000000089      65.450000000000017      48.125000000000014
   163   1      7.7000000000000099      65.450000000000017      50.050000000000011
   164   1      9.6250000000000089      65.450000000000017      51.975000000000001
   165   1      9.6250000000000089      67.375000000000014      50.050000000000011
   166   1      7.7000000000000099      65.450000000000017      53.900000000000013
   167   1      7.7000000000000099      67.375000000000014       55.82500000000001
   168   1      9.6250000000000089      65.450000000000017       55.82500000000001
   169   1      9.6250000000000089      67.375000000000014      53.900000000000013
   170   1      7.7000000000000099      65.450000000000017      57.750000000000014
   171   1      7.7000000000000099      67.375000000000014      59.675000000000011
   172   1      9.6250000000000089      65.450000000000017      59.675000000000011
   173   1      9.6250000000000089      67.375000000000014      57.750000000000014
   174   1      7.7000000000000099      65.450000000000017      61.600000000000016
   175   1      9.6250000000000089      65.450000000000017      63.525000000000006
   176   1      9.6250000000000089      67.375000000000014      61.600000000000016
   177   1      7.7000000000000099      65.450000000000017      65.450000000000017
   178   1      9.6250000000000089      65.450000000000017      67.375000000000014
   179   1      9.6250000000000089      67.375000000000014      65.450000000000017
   180   1      9.6250000000000089      69.300000000000011       55.82500000000001
   181   1      7.7000000000000099      69.300000000000011      57.750000000000014
   182   1      9.6250000000000089      69.300000000000011      59.675000000000011
   183   1      9.6250000000000089      71.225000000000023      57.750000000000014
   184   1      13.475000000000003      40.425000000000004      57.750000000000014
   185   1      11.550000000000006      44.275000000000013      51.975000000000001
   186   1      13.475000000000003      42.350000000000009      51.975000000000001
   187   1      13.475000000000003      44.275000000000013      50.050000000000011
   188   1      11.550000000000006      44.275000000000013       55.82500000000001
   189   1      13.475000000000003      42.350000000000009       55.82500000000001
   190   1      13.475000000000003      44.275000000000013      53.900000000000013
   191   1      11.550000000000006      42.350000000000009      57.750000000000014
   192   1      11.550000000000006      44.275000000000013      59.675000000000011
   193   1      13.475000000000003      42.350000000000009      59.675000000000011
   194   1      13.475000000000003      44.275000000000013      57.750000000000014
   195   1      11.550000000000006      44.275000000000013      63.525000000000006
   196   1      13.475000000000003      42.350000000000009      63.525000000000006
   197   1      13.475000000000003      44.275000000000013      61.600000000000016
   198   1      13.475000000000003      44.275000000000013      65.450000000000017
   199   1      11.550000000000006      48.125000000000014      48.125000000000014
   200   1      13.475000000000003      46.200000000000017      48.125000000000014
   201   1      13.475000000000003      48.125000000000014      46.200000000000017
   202   1      11.550000000000006      46.200000000000017      50.050000000000011
   203   1      11.550000000000006      48.125000000000014      51.975000000000001
   204   1      13.475000000000003      46.200000000000017      51.975000000000001
   205   1      13.475000000000003      48.125000000000014      50.050000000000011
   206   1      11.550000000000006      46.200000000000017      53.900000000000013
   207   1      11.550000000000006      48.125000000000014       55.82500000000001
   208   1      13.475000000000003      46.200000000000017       55.82500000000001
   209   1      13.475000000000003      48.125000000000014      53.900000000000013
   210   1      11.550000000000006      46.200000000000017      57.750000000000014
   211   1      11.550000000000006      48.125000000000014      59.675000000000011
   212   1      13.475000000000003      46.200000000000017      59.675000000000011
   213   1      13.475000000000003      48.125000000000014      57.750000000000014
   214   1      11.550000000000006      46.200000000000017      61.600000000000016
   215   1      11.550000000000006      48.125000000000014      63.525000000000006
   216   1      13.475000000000003      46.200000000000017      63.525000000000006
   217   1      13.475000000000003      48.125000000000014      61.600000000000016
   218   1      11.550000000000006      46.200000000000017      65.450000000000017
   219   1      11.550000000000006      48.125000000000014      67.375000000000014
   220   1      13.475000000000003      46.200000000000017      67.375000000000014
   221   1      13.475000000000003      48.125000000000014      65.450000000000017
   222   1      13.475000000000003      48.125000000000014      69.300000000000011
   223   1      11.550000000000006      51.975000000000001      44.275000000000013
   224   1      13.475000000000003      50.050000000000011      44.275000000000013
   225   1      13.475000000000003      51.975000000000001      42.350000000000009
   226   1      11.550000000000006      50.050000000000011      46.200000000000017
   227   1      11.550000000000006      51.975000000000001      48.125000000000014
   228   1      13.475000000000003      50.050000000000011      48.125000000000014
   229   1      13.475000000000003      51.975000000000001      46.200000000000017
   230   1      11.550000000000006      50.050000000000011      50.050000000000011
   231   1      11.550000000000006      51.975000000000001      51.975000000000001
   232   1      13.475000000000003      50.050000000000011      51.975000000000001
   233   1      13.475000000000003      51.975000000000001      50.050000000000011
   234   1      11.550000000000006      50.050000000000011      53.900000000000013
   235   1      11.550000000000006      51.975000000000001       55.82500000000001
   236   1      13.475000000000003      50.050000000000011       55.82500000000001
   237   1      13.475000000000003      51.975000000000001      53.900000000000013
   238   1      11.550000000000006      50.050000000000011      57.750000000000014
   239   1      11.550000000000006      51.975000000000001      59.675000000000011
   240   1      13.475000000000003      50.050000000000011      59.675000000000011
   241   1      13.475000000000003      51.975000000000001      57.750000000000014
   242   1      11.550000000000006      50.050000000000011      61.600000000000016
   243   1      11.550000000000006      51.975000000000001      63.525000000000006
   244   1      13.475000000000003      50.050000000000011      63.525000000000006
   245   1      13.475000000000003      51.975000000000001      61.600000000000016
   246   1      11.550000000000006      50.050000000000011      65.450000000000017
   247   1      11.550000000000006      51.975000000000001      67.375000000000014
   248   1      13.475000000000003      50.050000000000011      67.375000000000014
   249   1      13.475000000000003      51.975000000000001      65.450000000000017
   250   1      11.550000000000006      50.050000000000011      69.300000000000011
   251   1      11.550000000000006      51.975000000000001      71.225000000000023
   252   1      13.475000000000003      50.050000000000011      71.225000000000023
   253   1      13.475000000000003      51.975000000000001      69.300000000000011
   254   1      13.475000000000003      51.975000000000001       73.15000000000002
   255   1      11.550000000000006       55.82500000000001      44.275000000000013
   256   1      13.475000000000003      53.900000000000013      44.275000000000013
   257   1      13.475000000000003       55.82500000000001      42.350000000000009
   258   1      11.550000000000006      53.900000000000013      46.200000000000017
   259   1      11.550000000000006       55.82500000000001      48.125000000000014
   260   1      13.475000000000003      53.900000000000013      48.125000000000014
   261   1      13.475000000000003       55.82500000000001      46.200000000000017
   262   1      11.550000000000006      53.900000000000013      50.050000000000011
   263   1      11.550000000000006       55.82500000000001      51.975000000000001
   264   1      13.475000000000003      53.900000000000013      51.975000000000001
   265   1      13.475000000000003       55.82500000000001      50.050000000000011
   266   1      11.550000000000006      53.900000000000013      53.900000000000013
   267   1      11.550000000000006       55.82500000000001       55.82500000000001
   268   1      13.475000000000003      53.900000000000013       55.82500000000001
   269   1      13.475000000000003       55.82500000000001      53.900000000000013
   270   1      11.550000000000006      53.900000000000013      57.750000000000014
   271   1      11.550000000000006       55.82500000000001      59.675000000000011
   272   1      13.475000000000003      53.900000000000013      59.675000000000011
   273   1      13.475000000000003       55.82500000000001      57.750000000000014
   274   1      11.550000000000006      53.900000000000013      61.600000000000016
   275   1      11.550000000000006       55.82500000000001      63.525000000000006
   276   1      13.475000000000003      53.900000000000013      63.525000000000006
   277   1      13.475000000000003       55.82500000000001      61.600000000000016
   278   1      11.550000000000006      53.900000000000013      65.450000000000017
   279   1      11.550000000000006       55.82500000000001      67.375000000000014
   280   1      13.475000000000003      53.900000000000013      67.375000000000014
   281   1      13.475000000000003       55.82500000000001      65.450000000000017
   282   1      11.550000000000006      53.900000000000013      69.300000000000011
   283   1      11.550000000000006       55.82500000000001      71.225000000000023
   284   1      13.475000000000003      53.900000000000013      71.225000000000023
   285   1      13.475000000000003       55.82500000000001      69.300000000000011
   286   1      13.475000000000003       55.82500000000001       73.15000000000002
   287   1      13.475000000000003      57.750000000000014      40.425000000000004
   288   1      11.550000000000006      57.750000000000014      42.350000000000009
   289   1      11.550000000000006      59.675000000000011      44.275000000000013
   290   1      13.475000000000003      57.750000000000014      44.275000000000013
   291   1      13.475000000000003      59.675000000000011      42.350000000000009
   292   1      11.550000000000006      57.750000000000014      46.200000000000017
   293   1      11.550000000000006      59.675000000000011      48.125000000000014
   294   1      13.475000000000003      57.750000000000014      48.125000000000014
   295   1      13.475000000000003      59.675000000000011      46.200000000000017
   296   1      11.550000000000006      57.750000000000014      50.050000000000011
   297   1      11.550000000000006      59.675000000000011      51.975000000000001
   298   1      13.475000000000003      57.750000000000014      51.975000000000001
   299   1      13.475000000000003      59.675000000000011      50.050000000000011
   300   1      11.550000000000006      57.750000000000014      53.900000000000013
   301   1      11.550000000000006      59.675000000000011       55.82500000000001
   302   1      13.475000000000003      57.750000000000014       55.82500000000001
   303   1      13.475000000000003      59.675000000000011      53.900000000000013
   304   1      11.550000000000006      57.750000000000014      57.750000000000014
   305   1      11.550000000000006      59.675000000000011      59.675000000000011
   306   1      13.475000000000003      57.750000000000014      59.675000000000011
   307   1      13.475000000000003      59.675000000000011      57.750000000000014
   308   1      11.550000000000006      57.750000000000014      61.600000000000016
   309   1      11.550000000000006      59.675000000000011      63.525000000000006
   310   1      13.475000000000003      57.750000000000014      63.525000000000006
   311   1      13.475000000000003      59.675000000000011      61.600000000000016
   312   1      11.550000000000006      57.750000000000014      65.450000000000017
   313   1      11.550000000000006      59.675000000000011      67.375000000000014
   314   1      13.475000000000003      57.750000000000014      67.375000000000014
   315   1      13.475000000000003      59.675000000000011      65.450000000000017
   316   1      11.550000000000006      57.750000000000014      69.300000000000011
   317   1      11.550000000000006      59.675000000000011      71.225000000000023
   318   1      13.475000000000003      57.750000000000014      71.225000000000023
   319   1      13.475000000000003      59.675000000000011      69.300000000000011
   320   1      11.550000000000006      57.750000000000014       73.15000000000002
   321   1      13.475000000000003      57.750000000000014      75.075000000000003
   322   1      13.475000000000003      59.675000000000011       73.15000000000002
   323   1      11.550000000000006      63.525000000000006      44.275000000000013
   324   1      13.475000000000003      61.600000000000016      44.275000000000013
   325   1      13.475000000000003      63.525000000000006      42.350000000000009
   326   1      11.550000000000006      61.600000000000016      46.200000000000017
   327   1      11.550000000000006      63.525000000000006      48.125000000000014
   328   1      13.475000000000003      61.600000000000016      48.125000000000014
   329   1      13.475000000000003      63.525000000000006      46.200000000000017
   330   1      11.550000000000006      61.600000000000016      50.050000000000011
   331   1      11.550000000000006      63.525000000000006      51.975000000000001
   332   1      13.475000000000003      61.600000000000016      51.975000000000001
   333   1      13.475000000000003      63.525000000000006      50.050000000000011
   334   1      11.550000000000006      61.600000000000016      53.900000000000013
   335   1      11.550000000000006      63.525000000000006       55.82500000000001
   336   1      13.475000000000003      61.600000000000016       55.82500000000001
   337   1      13.475000000000003      63.525000000000006      53.900000000000013
   338   1      11.550000000000006      61.600000000000016      57.750000000000014
   339   1      11.550000000000006      63.525000000000006      59.675000000000011
   340   1      13.475000000000003      61.600000000000016      59.675000000000011
   341   1      13.475000000000003      63.525000000000006      57.750000000000014
   342   1      11.550000000000006      61.600000000000016      61.600000000000016
   343   1      11.550000000000006      63.525000000000006      63.525000000000006
   344   1      13.475000000000003      61.600000000000016      63.525000000000006
   345   1      13.475000000000003      63.525000000000006      61.600000000000016
   346   1      11.550000000000006      61.600000000000016      65.450000000000017
   347   1      11.550000000000006      63.525000000000006      67.375000000000014
   348   1      13.475000000000003      61.600000000000016      67.375000000000014
   349   1      13.475000000000003      63.525000000000006      65.450000000000017
   350   1      11.550000000000006      61.600000000000016      69.300000000000011
   351   1      11.550000000000006      63.525000000000006      71.225000000000023
   352   1      13.475000000000003      61.600000000000016      71.225000000000023
   353   1      13.475000000000003      63.525000000000006      69.300000000000011
   354   1      13.475000000000003      63.525000000000006       73.15000000000002
   355   1      13.475000000000003      65.450000000000017      44.275000000000013
   356   1      11.550000000000006      65.450000000000017      46.200000000000017
   357   1      11.550000000000006      67.375000000000014      48.125000000000014
   358   1      13.475000000000003      65.450000000000017      48.125000000000014