model_files/Fe/Fe_30000/Fe_210/data.Fe_210_bcc_30389 (written by ASE) 

30389 	 atoms 
1  atom types
0.0                      73  xlo xhi
0.0                      73  ylo yhi
0.0                      73  zlo zhi


Atoms 

     1   1                       0      34.439999999999998      35.874999999999993
     2   1                       0      35.874999999999993      34.439999999999998
     3   1                       0      35.874999999999993      37.309999999999995
     4   1                       0      37.309999999999995      35.874999999999993
     5   1      2.8699999999999974      28.699999999999992      30.134999999999991
     6   1      2.8699999999999974      28.699999999999992      33.004999999999995
     7   1      2.8699999999999974      28.699999999999992      35.874999999999993
     8   1      2.8699999999999974      28.699999999999992      38.744999999999983
     9   1      2.8699999999999974      28.699999999999992      41.614999999999995
    10   1      2.8699999999999974      30.134999999999991      28.699999999999992
    11   1      1.4349999999999952      31.569999999999993      31.569999999999993
    12   1      2.8699999999999974      30.134999999999991      31.569999999999993
    13   1      2.8699999999999974      31.569999999999993      30.134999999999991
    14   1      1.4349999999999952      31.569999999999993      34.439999999999998
    15   1      2.8699999999999974      30.134999999999991      34.439999999999998
    16   1      2.8699999999999974      31.569999999999993      33.004999999999995
    17   1      1.4349999999999952      31.569999999999993      37.309999999999995
    18   1      2.8699999999999974      30.134999999999991      37.309999999999995
    19   1      2.8699999999999974      31.569999999999993      35.874999999999993
    20   1      1.4349999999999952      31.569999999999993      40.179999999999986
    21   1      2.8699999999999974      30.134999999999991      40.179999999999986
    22   1      2.8699999999999974      31.569999999999993      38.744999999999983
    23   1      2.8699999999999974      30.134999999999991      43.049999999999997
    24   1      2.8699999999999974      31.569999999999993      41.614999999999995
    25   1      2.8699999999999974      33.004999999999995      28.699999999999992
    26   1      1.4349999999999952      34.439999999999998      31.569999999999993
    27   1      2.8699999999999974      33.004999999999995      31.569999999999993
    28   1      2.8699999999999974      34.439999999999998      30.134999999999991
    29   1      1.4349999999999952      33.004999999999995      33.004999999999995
    30   1      1.4349999999999952      34.439999999999998      34.439999999999998
    31   1      2.8699999999999974      33.004999999999995      34.439999999999998
    32   1      2.8699999999999974      34.439999999999998      33.004999999999995
    33   1      1.4349999999999952      33.004999999999995      35.874999999999993
    34   1      1.4349999999999952      34.439999999999998      37.309999999999995
    35   1      2.8699999999999974      33.004999999999995      37.309999999999995
    36   1      2.8699999999999974      34.439999999999998      35.874999999999993
    37   1      1.4349999999999952      33.004999999999995      38.744999999999983
    38   1      1.4349999999999952      34.439999999999998      40.179999999999986
    39   1      2.8699999999999974      33.004999999999995      40.179999999999986
    40   1      2.8699999999999974      34.439999999999998      38.744999999999983
    41   1      2.8699999999999974      33.004999999999995      43.049999999999997
    42   1      2.8699999999999974      34.439999999999998      41.614999999999995
    43   1      2.8699999999999974      35.874999999999993      28.699999999999992
    44   1      1.4349999999999952      37.309999999999995      31.569999999999993
    45   1      2.8699999999999974      35.874999999999993      31.569999999999993
    46   1      2.8699999999999974      37.309999999999995      30.134999999999991
    47   1      1.4349999999999952      35.874999999999993      33.004999999999995
    48   1      1.4349999999999952      37.309999999999995      34.439999999999998
    49   1      2.8699999999999974      35.874999999999993      34.439999999999998
    50   1      2.8699999999999974      37.309999999999995      33.004999999999995
    51   1      1.4349999999999952      35.874999999999993      35.874999999999993
    52   1      1.4349999999999952      37.309999999999995      37.309999999999995
    53   1      2.8699999999999974      35.874999999999993      37.309999999999995
    54   1      2.8699999999999974      37.309999999999995      35.874999999999993
    55   1      1.4349999999999952      35.874999999999993      38.744999999999983
    56   1      1.4349999999999952      37.309999999999995      40.179999999999986
    57   1      2.8699999999999974      35.874999999999993      40.179999999999986
    58   1      2.8699999999999974      37.309999999999995      38.744999999999983
    59   1      2.8699999999999974      35.874999999999993      43.049999999999997
    60   1      2.8699999999999974      37.309999999999995      41.614999999999995
    61   1      2.8699999999999974      38.744999999999983      28.699999999999992
    62   1      1.4349999999999952      40.179999999999986      31.569999999999993
    63   1      2.8699999999999974      38.744999999999983      31.569999999999993
    64   1      2.8699999999999974      40.179999999999986      30.134999999999991
    65   1      1.4349999999999952      38.744999999999983      33.004999999999995
    66   1      1.4349999999999952      40.179999999999986      34.439999999999998
    67   1      2.8699999999999974      38.744999999999983      34.439999999999998
    68   1      2.8699999999999974      40.179999999999986      33.004999999999995
    69   1      1.4349999999999952      38.744999999999983      35.874999999999993
    70   1      1.4349999999999952      40.179999999999986      37.309999999999995
    71   1      2.8699999999999974      38.744999999999983      37.309999999999995
    72   1      2.8699999999999974      40.179999999999986      35.874999999999993
    73   1      1.4349999999999952      38.744999999999983      38.744999999999983
    74   1      1.4349999999999952      40.179999999999986      40.179999999999986
    75   1      2.8699999999999974      38.744999999999983      40.179999999999986
    76   1      2.8699999999999974      40.179999999999986      38.744999999999983
    77   1      2.8699999999999974      38.744999999999983      43.049999999999997
    78   1      2.8699999999999974      40.179999999999986      41.614999999999995
    79   1      2.8699999999999974      41.614999999999995      28.699999999999992
    80   1      2.8699999999999974      41.614999999999995      31.569999999999993
    81   1      2.8699999999999974      43.049999999999997      30.134999999999991
    82   1      2.8699999999999974      41.614999999999995      34.439999999999998
    83   1      2.8699999999999974      43.049999999999997      33.004999999999995
    84   1      2.8699999999999974      41.614999999999995      37.309999999999995
    85   1      2.8699999999999974      43.049999999999997      35.874999999999993
    86   1      2.8699999999999974      41.614999999999995      40.179999999999986
    87   1      2.8699999999999974      43.049999999999997      38.744999999999983
    88   1      2.8699999999999974      41.614999999999995      43.049999999999997
    89   1      2.8699999999999974      43.049999999999997      41.614999999999995
    90   1      5.7399999999999949      22.959999999999994      24.394999999999996
    91   1      5.7399999999999949      22.959999999999994       27.26499999999999
    92   1      5.7399999999999949      22.959999999999994      30.134999999999991
    93   1      5.7399999999999949      22.959999999999994      33.004999999999995
    94   1      5.7399999999999949      22.959999999999994      35.874999999999993
    95   1      5.7399999999999949      22.959999999999994      38.744999999999983
    96   1      5.7399999999999949      22.959999999999994      41.614999999999995
    97   1      5.7399999999999949      22.959999999999994      44.484999999999985
    98   1      5.7399999999999949      22.959999999999994       47.35499999999999
    99   1      5.7399999999999949      24.394999999999996      22.959999999999994
   100   1      4.3049999999999962      25.829999999999995      25.829999999999995
   101   1      5.7399999999999949      24.394999999999996      25.829999999999995
   102   1      5.7399999999999949      25.829999999999995      24.394999999999996
   103   1      4.3049999999999962      25.829999999999995      28.699999999999992
   104   1      5.7399999999999949      24.394999999999996      28.699999999999992
   105   1      5.7399999999999949      25.829999999999995       27.26499999999999
   106   1      4.3049999999999962      25.829999999999995      31.569999999999993
   107   1      5.7399999999999949      24.394999999999996      31.569999999999993
   108   1      5.7399999999999949      25.829999999999995      30.134999999999991
   109   1      4.3049999999999962      25.829999999999995      34.439999999999998
   110   1      5.7399999999999949      24.394999999999996      34.439999999999998
   111   1      5.7399999999999949      25.829999999999995      33.004999999999995
   112   1      4.3049999999999962      25.829999999999995      37.309999999999995
   113   1      5.7399999999999949      24.394999999999996      37.309999999999995
   114   1      5.7399999999999949      25.829999999999995      35.874999999999993
   115   1      4.3049999999999962      25.829999999999995      40.179999999999986
   116   1      5.7399999999999949      24.394999999999996      40.179999999999986
   117   1      5.7399999999999949      25.829999999999995      38.744999999999983
   118   1      4.3049999999999962      25.829999999999995      43.049999999999997
   119   1      5.7399999999999949      24.394999999999996      43.049999999999997
   120   1      5.7399999999999949      25.829999999999995      41.614999999999995
   121   1      4.3049999999999962      25.829999999999995      45.919999999999987
   122   1      5.7399999999999949      24.394999999999996      45.919999999999987
   123   1      5.7399999999999949      25.829999999999995      44.484999999999985
   124   1      5.7399999999999949      24.394999999999996      48.789999999999992
   125   1      5.7399999999999949      25.829999999999995       47.35499999999999
   126   1      5.7399999999999949       27.26499999999999      22.959999999999994
   127   1      4.3049999999999962      28.699999999999992      25.829999999999995
   128   1      5.7399999999999949       27.26499999999999      25.829999999999995
   129   1      5.7399999999999949      28.699999999999992      24.394999999999996
   130   1      4.3049999999999962       27.26499999999999       27.26499999999999
   131   1      4.3049999999999962      28.699999999999992      28.699999999999992
   132   1      5.7399999999999949       27.26499999999999      28.699999999999992
   133   1      5.7399999999999949      28.699999999999992       27.26499999999999
   134   1      4.3049999999999962       27.26499999999999      30.134999999999991
   135   1      4.3049999999999962      28.699999999999992      31.569999999999993
   136   1      5.7399999999999949       27.26499999999999      31.569999999999993
   137   1      5.7399999999999949      28.699999999999992      30.134999999999991
   138   1      4.3049999999999962       27.26499999999999      33.004999999999995
   139   1      4.3049999999999962      28.699999999999992      34.439999999999998
   140   1      5.7399999999999949       27.26499999999999      34.439999999999998
   141   1      5.7399999999999949      28.699999999999992      33.004999999999995
   142   1      4.3049999999999962       27.26499999999999      35.874999999999993
   143   1      4.3049999999999962      28.699999999999992      37.309999999999995
   144   1      5.7399999999999949       27.26499999999999      37.309999999999995
   145   1      5.7399999999999949      28.699999999999992      35.874999999999993
   146   1      4.3049999999999962       27.26499999999999      38.744999999999983
   147   1      4.3049999999999962      28.699999999999992      40.179999999999986
   148   1      5.7399999999999949       27.26499999999999      40.179999999999986
   149   1      5.7399999999999949      28.699999999999992      38.744999999999983
   150   1      4.3049999999999962       27.26499999999999      41.614999999999995
   151   1      4.3049999999999962      28.699999999999992      43.049999999999997
   152   1      5.7399999999999949       27.26499999999999      43.049999999999997
   153   1      5.7399999999999949      28.699999999999992      41.614999999999995
   154   1      4.3049999999999962       27.26499999999999      44.484999999999985
   155   1      4.3049999999999962      28.699999999999992      45.919999999999987
   156   1      5.7399999999999949       27.26499999999999      45.919999999999987
   157   1      5.7399999999999949      28.699999999999992      44.484999999999985
   158   1      5.7399999999999949       27.26499999999999      48.789999999999992
   159   1      5.7399999999999949      28.699999999999992       47.35499999999999
   160   1      5.7399999999999949      30.134999999999991      22.959999999999994
   161   1      4.3049999999999962      31.569999999999993      25.829999999999995
   162   1      5.7399999999999949      30.134999999999991      25.829999999999995
   163   1      5.7399999999999949      31.569999999999993      24.394999999999996
   164   1      4.3049999999999962      30.134999999999991       27.26499999999999
   165   1      4.3049999999999962      31.569999999999993      28.699999999999992
   166   1      5.7399999999999949      30.134999999999991      28.699999999999992
   167   1      5.7399999999999949      31.569999999999993       27.26499999999999
   168   1      4.3049999999999962      30.134999999999991      30.134999999999991
   169   1      4.3049999999999962      31.569999999999993      31.569999999999993
   170   1      5.7399999999999949      30.134999999999991      31.569999999999993
   171   1      5.7399999999999949      31.569999999999993      30.134999999999991
   172   1      4.3049999999999962      30.134999999999991      33.004999999999995
   173   1      4.3049999999999962      31.569999999999993      34.439999999999998
   174   1      5.7399999999999949      30.134999999999991      34.439999999999998
   175   1      5.7399999999999949      31.569999999999993      33.004999999999995
   176   1      4.3049999999999962      30.134999999999991      35.874999999999993
   177   1      4.3049999999999962      31.569999999999993      37.309999999999995
   178   1      5.7399999999999949      30.134999999999991      37.309999999999995
   179   1      5.7399999999999949      31.569999999999993      35.874999999999993
   180   1      4.3049999999999962      30.134999999999991      38.744999999999983
   181   1      4.3049999999999962      31.569999999999993      40.179999999999986
   182   1      5.7399999999999949      30.134999999999991      40.179999999999986
   183   1      5.7399999999999949      31.569999999999993      38.744999999999983
   184   1      4.3049999999999962      30.134999999999991      41.614999999999995
   185   1      4.3049999999999962      31.569999999999993      43.049999999999997
   186   1      5.7399999999999949      30.134999999999991      43.049999999999997
   187   1      5.7399999999999949      31.569999999999993      41.614999999999995
   188   1      4.3049999999999962      30.134999999999991      44.484999999999985
   189   1      4.3049999999999962      31.569999999999993      45.919999999999987
   190   1      5.7399999999999949      30.134999999999991      45.919999999999987
   191   1      5.7399999999999949      31.569999999999993      44.484999999999985
   192   1      5.7399999999999949      30.134999999999991      48.789999999999992
   193   1      5.7399999999999949      31.569999999999993       47.35499999999999
   194   1      5.7399999999999949      33.004999999999995      22.959999999999994
   195   1      4.3049999999999962      34.439999999999998      25.829999999999995
   196   1      5.7399999999999949      33.004999999999995      25.829999999999995
   197   1      5.7399999999999949      34.439999999999998      24.394999999999996
   198   1      4.3049999999999962      33.004999999999995       27.26499999999999
   199   1      4.3049999999999962      34.439999999999998      28.699999999999992
   200   1      5.7399999999999949      33.004999999999995      28.699999999999992
   201   1      5.7399999999999949      34.439999999999998       27.26499999999999
   202   1      4.3049999999999962      33.004999999999995      30.134999999999991
   203   1      4.3049999999999962      34.439999999999998      31.569999999999993
   204   1      5.7399999999999949      33.004999999999995      31.569999999999993
   205   1      5.7399999999999949      34.439999999999998      30.134999999999991
   206   1      4.3049999999999962      33.004999999999995      33.004999999999995
   207   1      4.3049999999999962      34.439999999999998      34.439999999999998
   208   1      5.7399999999999949      33.004999999999995      34.439999999999998
   209   1      5.7399999999999949      34.439999999999998      33.004999999999995
   210   1      4.3049999999999962      33.004999999999995      35.874999999999993
   211   1      4.3049999999999962      34.439999999999998      37.309999999999995
   212   1      5.7399999999999949      33.004999999999995      37.309999999999995
   213   1      5.7399999999999949      34.439999999999998      35.874999999999993
   214   1      4.3049999999999962      33.004999999999995      38.744999999999983
   215   1      4.3049999999999962      34.439999999999998      40.179999999999986
   216   1      5.7399999999999949      33.004999999999995      40.179999999999986
   217   1      5.7399999999999949      34.439999999999998      38.744999999999983
   218   1      4.3049999999999962      33.004999999999995      41.614999999999995
   219   1      4.3049999999999962      34.439999999999998      43.049999999999997
   220   1      5.7399999999999949      33.004999999999995      43.049999999999997
   221   1      5.7399999999999949      34.439999999999998      41.614999999999995
   222   1      4.3049999999999962      33.004999999999995      44.484999999999985
   223   1      4.3049999999999962      34.439999999999998      45.919999999999987
   224   1      5.7399999999999949      33.004999999999995      45.919999999999987
   225   1      5.7399999999999949      34.439999999999998      44.484999999999985
   226   1      5.7399999999999949      33.004999999999995      48.789999999999992
   227   1      5.7399999999999949      34.439999999999998       47.35499999999999
   228   1      5.7399999999999949      35.874999999999993      22.959999999999994
   229   1      4.3049999999999962      37.309999999999995      25.829999999999995
   230   1      5.7399999999999949      35.874999999999993      25.829999999999995
   231   1      5.7399999999999949      37.309999999999995      24.394999999999996
   232   1      4.3049999999999962      35.874999999999993       27.26499999999999
   233   1      4.3049999999999962      37.309999999999995      28.699999999999992
   234   1      5.7399999999999949      35.874999999999993      28.699999999999992
   235   1      5.7399999999999949      37.309999999999995       27.26499999999999
   236   1      4.3049999999999962      35.874999999999993      30.134999999999991
   237   1      4.3049999999999962      37.309999999999995      31.569999999999993
   238   1      5.7399999999999949      35.874999999999993      31.569999999999993
   239   1      5.7399999999999949      37.309999999999995      30.134999999999991
   240   1      4.3049999999999962      35.874999999999993      33.004999999999995
   241   1      4.3049999999999962      37.309999999999995      34.439999999999998
   242   1      5.7399999999999949      35.874999999999993      34.439999999999998
   243   1      5.7399999999999949      37.309999999999995      33.004999999999995
   244   1      4.3049999999999962      35.874999999999993      35.874999999999993
   245   1      4.3049999999999962      37.309999999999995      37.309999999999995
   246   1      5.7399999999999949      35.874999999999993      37.309999999999995
   247   1      5.7399999999999949      37.309999999999995      35.874999999999993
   248   1      4.3049999999999962      35.874999999999993      38.744999999999983
   249   1      4.3049999999999962      37.309999999999995      40.179999999999986
   250   1      5.7399999999999949      35.874999999999993      40.179999999999986
   251   1      5.7399999999999949      37.309999999999995      38.744999999999983
   252   1      4.3049999999999962      35.874999999999993      41.614999999999995
   253   1      4.3049999999999962      37.309999999999995      43.049999999999997
   254   1      5.7399999999999949      35.874999999999993      43.049999999999997
   255   1      5.7399999999999949      37.309999999999995      41.614999999999995
   256   1      4.3049999999999962      35.874999999999993      44.484999999999985
   257   1      4.3049999999999962      37.309999999999995      45.919999999999987
   258   1      5.7399999999999949      35.874999999999993      45.919999999999987
   259   1      5.7399999999999949      37.309999999999995      44.484999999999985
   260   1      5.7399999999999949      35.874999999999993      48.789999999999992
   261   1      5.7399999999999949      37.309999999999995       47.35499999999999
   262   1      5.7399999999999949      38.744999999999983      22.959999999999994
   263   1      4.3049999999999962      40.179999999999986      25.829999999999995
   264   1      5.7399999999999949      38.744999999999983      25.829999999999995
   265   1      5.7399999999999949      40.179999999999986      24.394999999999996
   266   1      4.3049999999999962      38.744999999999983       27.26499999999999
   267   1      4.3049999999999962      40.179999999999986      28.699999999999992
   268   1      5.7399999999999949      38.744999999999983      28.699999999999992
   269   1      5.7399999999999949      40.179999999999986       27.26499999999999
   270   1      4.3049999999999962      38.744999999999983      30.134999999999991
   271   1      4.3049999999999962      40.179999999999986      31.569999999999993
   272   1      5.7399999999999949      38.744999999999983      31.569999999999993
   273   1      5.7399999999999949      40.179999999999986      30.134999999999991
   274   1      4.3049999999999962      38.744999999999983      33.004999999999995
   275   1      4.3049999999999962      40.179999999999986      34.439999999999998
   276   1      5.7399999999999949      38.744999999999983      34.439999999999998
   277   1      5.7399999999999949      40.179999999999986      33.004999999999995
   278   1      4.3049999999999962      38.744999999999983      35.874999999999993
   279   1      4.3049999999999962      40.179999999999986      37.309999999999995
   280   1      5.7399999999999949      38.744999999999983      37.309999999999995
   281   1      5.7399999999999949      40.179999999999986      35.874999999999993
   282   1      4.3049999999999962      38.744999999999983      38.744999999999983
   283   1      4.3049999999999962      40.179999999999986      40.179999999999986
   284   1      5.7399999999999949      38.744999999999983      40.179999999999986
   285   1      5.7399999999999949      40.179999999999986      38.744999999999983
   286   1      4.3049999999999962      38.744999999999983      41.614999999999995
   287   1      4.3049999999999962      40.179999999999986      43.049999999999997
   288   1      5.7399999999999949      38.744999999999983      43.049999999999997
   289   1      5.7399999999999949      40.179999999999986      41.614999999999995
   290   1      4.3049999999999962      38.744999999999983      44.484999999999985
   291   1      4.3049999999999962      40.179999999999986      45.919999999999987
   292   1      5.7399999999999949      38.744999999999983      45.919999999999987
   293   1      5.7399999999999949      40.179999999999986      44.484999999999985
   294   1      5.7399999999999949      38.744999999999983      48.789999999999992
   295   1      5.7399999999999949      40.179999999999986       47.35499999999999
   296   1      5.7399999999999949      41.614999999999995      22.959999999999994
   297   1      4.3049999999999962      43.049999999999997      25.829999999999995
   298   1      5.7399999999999949      41.614999999999995      25.829999999999995
   299   1      5.7399999999999949      43.049999999999997      24.394999999999996
   300   1      4.3049999999999962      41.614999999999995       27.26499999999999
   301   1      4.3049999999999962      43.049999999999997      28.699999999999992
   302   1      5.7399999999999949      41.614999999999995      28.699999999999992
   303   1      5.7399999999999949      43.049999999999997       27.26499999999999
   304   1      4.3049999999999962      41.614999999999995      30.134999999999991
   305   1      4.3049999999999962      43.049999999999997      31.569999999999993
   306   1      5.7399999999999949      41.614999999999995      31.569999999999993
   307   1      5.7399999999999949      43.049999999999997      30.134999999999991
   308   1      4.3049999999999962      41.614999999999995      33.004999999999995
   309   1      4.3049999999999962      43.049999999999997      34.439999999999998
   310   1      5.7399999999999949      41.614999999999995      34.439999999999998
   311   1      5.7399999999999949      43.049999999999997      33.004999999999995
   312   1      4.3049999999999962      41.614999999999995      35.874999999999993
   313   1      4.3049999999999962      43.049999999999997      37.309999999999995
   314   1      5.7399999999999949      41.614999999999995      37.309999999999995
   315   1      5.7399999999999949      43.049999999999997      35.874999999999993
   316   1      4.3049999999999962      41.614999999999995      38.744999999999983
   317   1      4.3049999999999962      43.049999999999997      40.179999999999986
   318   1      5.7399999999999949      41.614999999999995      40.179999999999986
   319   1      5.7399999999999949      43.049999999999997      38.744999999999983
   320   1      4.3049999999999962      41.614999999999995      41.614999999999995
   321   1      4.3049999999999962      43.049999999999997      43.049999999999997
   322   1      5.7399999999999949      41.614999999999995      43.049999999999997
   323   1      5.7399999999999949      43.049999999999997      41.614999999999995
   324   1      4.3049999999999962      41.614999999999995      44.484999999999985
   325   1      4.3049999999999962      43.049999999999997      45.919999999999987
   326   1      5.7399999999999949      41.614999999999995      45.919999999999987
   327   1      5.7399999999999949      43.049999999999997      44.484999999999985
   328   1      5.7399999999999949      41.614999999999995      48.789999999999992
   329   1      5.7399999999999949      43.049999999999997       47.35499999999999
   330   1      5.7399999999999949      44.484999999999985      22.959999999999994
   331   1      4.3049999999999962      45.919999999999987      25.829999999999995
   332   1      5.7399999999999949      44.484999999999985      25.829999999999995
   333   1      5.7399999999999949      45.919999999999987      24.394999999999996
   334   1      4.3049999999999962      44.484999999999985       27.26499999999999
   335   1      4.3049999999999962      45.919999999999987      28.699999999999992
   336   1      5.7399999999999949      44.484999999999985      28.699999999999992
   337   1      5.7399999999999949      45.919999999999987       27.26499999999999
   338   1      4.3049999999999962      44.484999999999985      30.134999999999991
   339   1      4.3049999999999962      45.919999999999987      31.569999999999993
   340   1      5.7399999999999949      44.484999999999985      31.569999999999993
   341   1      5.7399999999999949      45.919999999999987      30.134999999999991
   342   1      4.3049999999999962      44.484999999999985      33.004999999999995
   343   1      4.3049999999999962      45.919999999999987      34.439999999999998
   344   1      5.7399999999999949      44.484999999999985      34.439999999999998
   345   1      5.7399999999999949      45.919999999999987      33.004999999999995
   346   1      4.3049999999999962      44.484999999999985      35.874999999999993
   347   1      4.3049999999999962      45.919999999999987      37.309999999999995
   348   1      5.7399999999999949      44.484999999999985      37.309999999999995
   349   1      5.7399999999999949      45.919999999999987      35.874999999999993
   350   1      4.3049999999999962      44.484999999999985      38.744999999999983
   351   1      4.3049999999999962      45.919999999999987      40.179999999999986
   352   1      5.7399999999999949      44.484999999999985      40.179999999999986
   353   1      5.7399999999999949      45.919999999999987      38.744999999999983
   354   1      4.3049999999999962      44.484999999999985      41.614999999999995
   355   1      4.3049999999999962      45.919999999999987      43.049999999999997
   356   1      5.7399999999999949      44.484999999999985      43.049999999999997
   357   1      5.7399999999999949      45.919999999999987      41.614999999999995
   358   1      4.3049999999999962      44.484999999999985      44.484999999999985