model_files/Pt/Pt_30000/Pt_210/data.Pt_210_fcc_30389 (written by ASE) 

30389 	 atoms 
1  atom types
0.0                      99  xlo xhi
0.0                      99  ylo yhi
0.0                      99  zlo zhi


Atoms 

     1   1      98.999999999999986      47.039999999999992                      49
     2   1      98.999999999999986                      49      47.039999999999992
     3   1      98.999999999999986                      49      50.960000000000001
     4   1      98.999999999999986      50.960000000000001                      49
     5   1       3.919999999999995      39.200000000000003      41.159999999999989
     6   1       3.919999999999995      39.200000000000003      45.079999999999991
     7   1       3.919999999999995      39.200000000000003                      49
     8   1       3.919999999999995      39.200000000000003      52.919999999999987
     9   1       3.919999999999995      39.200000000000003      56.839999999999989
    10   1       3.919999999999995      41.159999999999989      39.200000000000003
    11   1       1.959999999999994       43.11999999999999       43.11999999999999
    12   1       3.919999999999995      41.159999999999989       43.11999999999999
    13   1       3.919999999999995       43.11999999999999      41.159999999999989
    14   1       1.959999999999994       43.11999999999999      47.039999999999992
    15   1       3.919999999999995      41.159999999999989      47.039999999999992
    16   1       3.919999999999995       43.11999999999999      45.079999999999991
    17   1       1.959999999999994       43.11999999999999      50.960000000000001
    18   1       3.919999999999995      41.159999999999989      50.960000000000001
    19   1       3.919999999999995       43.11999999999999                      49
    20   1       1.959999999999994       43.11999999999999      54.879999999999988
    21   1       3.919999999999995      41.159999999999989      54.879999999999988
    22   1       3.919999999999995       43.11999999999999      52.919999999999987
    23   1       3.919999999999995      41.159999999999989      58.799999999999997
    24   1       3.919999999999995       43.11999999999999      56.839999999999989
    25   1       3.919999999999995      45.079999999999991      39.200000000000003
    26   1       1.959999999999994      47.039999999999992       43.11999999999999
    27   1       3.919999999999995      45.079999999999991       43.11999999999999
    28   1       3.919999999999995      47.039999999999992      41.159999999999989
    29   1       1.959999999999994      45.079999999999991      45.079999999999991
    30   1       1.959999999999994      47.039999999999992      47.039999999999992
    31   1       3.919999999999995      45.079999999999991      47.039999999999992
    32   1       3.919999999999995      47.039999999999992      45.079999999999991
    33   1       1.959999999999994      45.079999999999991                      49
    34   1       1.959999999999994      47.039999999999992      50.960000000000001
    35   1       3.919999999999995      45.079999999999991      50.960000000000001
    36   1       3.919999999999995      47.039999999999992                      49
    37   1       1.959999999999994      45.079999999999991      52.919999999999987
    38   1       1.959999999999994      47.039999999999992      54.879999999999988
    39   1       3.919999999999995      45.079999999999991      54.879999999999988
    40   1       3.919999999999995      47.039999999999992      52.919999999999987
    41   1       3.919999999999995      45.079999999999991      58.799999999999997
    42   1       3.919999999999995      47.039999999999992      56.839999999999989
    43   1       3.919999999999995                      49      39.200000000000003
    44   1       1.959999999999994      50.960000000000001       43.11999999999999
    45   1       3.919999999999995                      49       43.11999999999999
    46   1       3.919999999999995      50.960000000000001      41.159999999999989
    47   1       1.959999999999994                      49      45.079999999999991
    48   1       1.959999999999994      50.960000000000001      47.039999999999992
    49   1       3.919999999999995                      49      47.039999999999992
    50   1       3.919999999999995      50.960000000000001      45.079999999999991
    51   1       1.959999999999994                      49                      49
    52   1       1.959999999999994      50.960000000000001      50.960000000000001
    53   1       3.919999999999995                      49      50.960000000000001
    54   1       3.919999999999995      50.960000000000001                      49
    55   1       1.959999999999994                      49      52.919999999999987
    56   1       1.959999999999994      50.960000000000001      54.879999999999988
    57   1       3.919999999999995                      49      54.879999999999988
    58   1       3.919999999999995      50.960000000000001      52.919999999999987
    59   1       3.919999999999995                      49      58.799999999999997
    60   1       3.919999999999995      50.960000000000001      56.839999999999989
    61   1       3.919999999999995      52.919999999999987      39.200000000000003
    62   1       1.959999999999994      54.879999999999988       43.11999999999999
    63   1       3.919999999999995      52.919999999999987       43.11999999999999
    64   1       3.919999999999995      54.879999999999988      41.159999999999989
    65   1       1.959999999999994      52.919999999999987      45.079999999999991
    66   1       1.959999999999994      54.879999999999988      47.039999999999992
    67   1       3.919999999999995      52.919999999999987      47.039999999999992
    68   1       3.919999999999995      54.879999999999988      45.079999999999991
    69   1       1.959999999999994      52.919999999999987                      49
    70   1       1.959999999999994      54.879999999999988      50.960000000000001
    71   1       3.919999999999995      52.919999999999987      50.960000000000001
    72   1       3.919999999999995      54.879999999999988                      49
    73   1       1.959999999999994      52.919999999999987      52.919999999999987
    74   1       1.959999999999994      54.879999999999988      54.879999999999988
    75   1       3.919999999999995      52.919999999999987      54.879999999999988
    76   1       3.919999999999995      54.879999999999988      52.919999999999987
    77   1       3.919999999999995      52.919999999999987      58.799999999999997
    78   1       3.919999999999995      54.879999999999988      56.839999999999989
    79   1       3.919999999999995      56.839999999999989      39.200000000000003
    80   1       3.919999999999995      56.839999999999989       43.11999999999999
    81   1       3.919999999999995      58.799999999999997      41.159999999999989
    82   1       3.919999999999995      56.839999999999989      47.039999999999992
    83   1       3.919999999999995      58.799999999999997      45.079999999999991
    84   1       3.919999999999995      56.839999999999989      50.960000000000001
    85   1       3.919999999999995      58.799999999999997                      49
    86   1       3.919999999999995      56.839999999999989      54.879999999999988
    87   1       3.919999999999995      58.799999999999997      52.919999999999987
    88   1       3.919999999999995      56.839999999999989      58.799999999999997
    89   1       3.919999999999995      58.799999999999997      56.839999999999989
    90   1      7.8399999999999972      31.359999999999992      33.319999999999993
    91   1      7.8399999999999972      31.359999999999992      37.239999999999995
    92   1      7.8399999999999972      31.359999999999992      41.159999999999989
    93   1      7.8399999999999972      31.359999999999992      45.079999999999991
    94   1      7.8399999999999972      31.359999999999992                      49
    95   1      7.8399999999999972      31.359999999999992      52.919999999999987
    96   1      7.8399999999999972      31.359999999999992      56.839999999999989
    97   1      7.8399999999999972      31.359999999999992      60.759999999999998
    98   1      7.8399999999999972      31.359999999999992      64.679999999999993
    99   1      7.8399999999999972      33.319999999999993      31.359999999999992
   100   1      5.8799999999999892      35.279999999999994      35.279999999999994
   101   1      7.8399999999999972      33.319999999999993      35.279999999999994
   102   1      7.8399999999999972      35.279999999999994      33.319999999999993
   103   1      5.8799999999999892      35.279999999999994      39.200000000000003
   104   1      7.8399999999999972      33.319999999999993      39.200000000000003
   105   1      7.8399999999999972      35.279999999999994      37.239999999999995
   106   1      5.8799999999999892      35.279999999999994       43.11999999999999
   107   1      7.8399999999999972      33.319999999999993       43.11999999999999
   108   1      7.8399999999999972      35.279999999999994      41.159999999999989
   109   1      5.8799999999999892      35.279999999999994      47.039999999999992
   110   1      7.8399999999999972      33.319999999999993      47.039999999999992
   111   1      7.8399999999999972      35.279999999999994      45.079999999999991
   112   1      5.8799999999999892      35.279999999999994      50.960000000000001
   113   1      7.8399999999999972      33.319999999999993      50.960000000000001
   114   1      7.8399999999999972      35.279999999999994                      49
   115   1      5.8799999999999892      35.279999999999994      54.879999999999988
   116   1      7.8399999999999972      33.319999999999993      54.879999999999988
   117   1      7.8399999999999972      35.279999999999994      52.919999999999987
   118   1      5.8799999999999892      35.279999999999994      58.799999999999997
   119   1      7.8399999999999972      33.319999999999993      58.799999999999997
   120   1      7.8399999999999972      35.279999999999994      56.839999999999989
   121   1      5.8799999999999892      35.279999999999994      62.719999999999985
   122   1      7.8399999999999972      33.319999999999993      62.719999999999985
   123   1      7.8399999999999972      35.279999999999994      60.759999999999998
   124   1      7.8399999999999972      33.319999999999993      66.639999999999986
   125   1      7.8399999999999972      35.279999999999994      64.679999999999993
   126   1      7.8399999999999972      37.239999999999995      31.359999999999992
   127   1      5.8799999999999892      39.200000000000003      35.279999999999994
   128   1      7.8399999999999972      37.239999999999995      35.279999999999994
   129   1      7.8399999999999972      39.200000000000003      33.319999999999993
   130   1      5.8799999999999892      37.239999999999995      37.239999999999995
   131   1      5.8799999999999892      39.200000000000003      39.200000000000003
   132   1      7.8399999999999972      37.239999999999995      39.200000000000003
   133   1      7.8399999999999972      39.200000000000003      37.239999999999995
   134   1      5.8799999999999892      37.239999999999995      41.159999999999989
   135   1      5.8799999999999892      39.200000000000003       43.11999999999999
   136   1      7.8399999999999972      37.239999999999995       43.11999999999999
   137   1      7.8399999999999972      39.200000000000003      41.159999999999989
   138   1      5.8799999999999892      37.239999999999995      45.079999999999991
   139   1      5.8799999999999892      39.200000000000003      47.039999999999992
   140   1      7.8399999999999972      37.239999999999995      47.039999999999992
   141   1      7.8399999999999972      39.200000000000003      45.079999999999991
   142   1      5.8799999999999892      37.239999999999995                      49
   143   1      5.8799999999999892      39.200000000000003      50.960000000000001
   144   1      7.8399999999999972      37.239999999999995      50.960000000000001
   145   1      7.8399999999999972      39.200000000000003                      49
   146   1      5.8799999999999892      37.239999999999995      52.919999999999987
   147   1      5.8799999999999892      39.200000000000003      54.879999999999988
   148   1      7.8399999999999972      37.239999999999995      54.879999999999988
   149   1      7.8399999999999972      39.200000000000003      52.919999999999987
   150   1      5.8799999999999892      37.239999999999995      56.839999999999989
   151   1      5.8799999999999892      39.200000000000003      58.799999999999997
   152   1      7.8399999999999972      37.239999999999995      58.799999999999997
   153   1      7.8399999999999972      39.200000000000003      56.839999999999989
   154   1      5.8799999999999892      37.239999999999995      60.759999999999998
   155   1      5.8799999999999892      39.200000000000003      62.719999999999985
   156   1      7.8399999999999972      37.239999999999995      62.719999999999985
   157   1      7.8399999999999972      39.200000000000003      60.759999999999998
   158   1      7.8399999999999972      37.239999999999995      66.639999999999986
   159   1      7.8399999999999972      39.200000000000003      64.679999999999993
   160   1      7.8399999999999972      41.159999999999989      31.359999999999992
   161   1      5.8799999999999892       43.11999999999999      35.279999999999994
   162   1      7.8399999999999972      41.159999999999989      35.279999999999994
   163   1      7.8399999999999972       43.11999999999999      33.319999999999993
   164   1      5.8799999999999892      41.159999999999989      37.239999999999995
   165   1      5.8799999999999892       43.11999999999999      39.200000000000003
   166   1      7.8399999999999972      41.159999999999989      39.200000000000003
   167   1      7.8399999999999972       43.11999999999999      37.239999999999995
   168   1      5.8799999999999892      41.159999999999989      41.159999999999989
   169   1      5.8799999999999892       43.11999999999999       43.11999999999999
   170   1      7.8399999999999972      41.159999999999989       43.11999999999999
   171   1      7.8399999999999972       43.11999999999999      41.159999999999989
   172   1      5.8799999999999892      41.159999999999989      45.079999999999991
   173   1      5.8799999999999892       43.11999999999999      47.039999999999992
   174   1      7.8399999999999972      41.159999999999989      47.039999999999992
   175   1      7.8399999999999972       43.11999999999999      45.079999999999991
   176   1      5.8799999999999892      41.159999999999989                      49
   177   1      5.8799999999999892       43.11999999999999      50.960000000000001
   178   1      7.8399999999999972      41.159999999999989      50.960000000000001
   179   1      7.8399999999999972       43.11999999999999                      49
   180   1      5.8799999999999892      41.159999999999989      52.919999999999987
   181   1      5.8799999999999892       43.11999999999999      54.879999999999988
   182   1      7.8399999999999972      41.159999999999989      54.879999999999988
   183   1      7.8399999999999972       43.11999999999999      52.919999999999987
   184   1      5.8799999999999892      41.159999999999989      56.839999999999989
   185   1      5.8799999999999892       43.11999999999999      58.799999999999997
   186   1      7.8399999999999972      41.159999999999989      58.799999999999997
   187   1      7.8399999999999972       43.11999999999999      56.839999999999989
   188   1      5.8799999999999892      41.159999999999989      60.759999999999998
   189   1      5.8799999999999892       43.11999999999999      62.719999999999985
   190   1      7.8399999999999972      41.159999999999989      62.719999999999985
   191   1      7.8399999999999972       43.11999999999999      60.759999999999998
   192   1      7.8399999999999972      41.159999999999989      66.639999999999986
   193   1      7.8399999999999972       43.11999999999999      64.679999999999993
   194   1      7.8399999999999972      45.079999999999991      31.359999999999992
   195   1      5.8799999999999892      47.039999999999992      35.279999999999994
   196   1      7.8399999999999972      45.079999999999991      35.279999999999994
   197   1      7.8399999999999972      47.039999999999992      33.319999999999993
   198   1      5.8799999999999892      45.079999999999991      37.239999999999995
   199   1      5.8799999999999892      47.039999999999992      39.200000000000003
   200   1      7.8399999999999972      45.079999999999991      39.200000000000003
   201   1      7.8399999999999972      47.039999999999992      37.239999999999995
   202   1      5.8799999999999892      45.079999999999991      41.159999999999989
   203   1      5.8799999999999892      47.039999999999992       43.11999999999999
   204   1      7.8399999999999972      45.079999999999991       43.11999999999999
   205   1      7.8399999999999972      47.039999999999992      41.159999999999989
   206   1      5.8799999999999892      45.079999999999991      45.079999999999991
   207   1      5.8799999999999892      47.039999999999992      47.039999999999992
   208   1      7.8399999999999972      45.079999999999991      47.039999999999992
   209   1      7.8399999999999972      47.039999999999992      45.079999999999991
   210   1      5.8799999999999892      45.079999999999991                      49
   211   1      5.8799999999999892      47.039999999999992      50.960000000000001
   212   1      7.8399999999999972      45.079999999999991      50.960000000000001
   213   1      7.8399999999999972      47.039999999999992                      49
   214   1      5.8799999999999892      45.079999999999991      52.919999999999987
   215   1      5.8799999999999892      47.039999999999992      54.879999999999988
   216   1      7.8399999999999972      45.079999999999991      54.879999999999988
   217   1      7.8399999999999972      47.039999999999992      52.919999999999987
   218   1      5.8799999999999892      45.079999999999991      56.839999999999989
   219   1      5.8799999999999892      47.039999999999992      58.799999999999997
   220   1      7.8399999999999972      45.079999999999991      58.799999999999997
   221   1      7.8399999999999972      47.039999999999992      56.839999999999989
   222   1      5.8799999999999892      45.079999999999991      60.759999999999998
   223   1      5.8799999999999892      47.039999999999992      62.719999999999985
   224   1      7.8399999999999972      45.079999999999991      62.719999999999985
   225   1      7.8399999999999972      47.039999999999992      60.759999999999998
   226   1      7.8399999999999972      45.079999999999991      66.639999999999986
   227   1      7.8399999999999972      47.039999999999992      64.679999999999993
   228   1      7.8399999999999972                      49      31.359999999999992
   229   1      5.8799999999999892      50.960000000000001      35.279999999999994
   230   1      7.8399999999999972                      49      35.279999999999994
   231   1      7.8399999999999972      50.960000000000001      33.319999999999993
   232   1      5.8799999999999892                      49      37.239999999999995
   233   1      5.8799999999999892      50.960000000000001      39.200000000000003
   234   1      7.8399999999999972                      49      39.200000000000003
   235   1      7.8399999999999972      50.960000000000001      37.239999999999995
   236   1      5.8799999999999892                      49      41.159999999999989
   237   1      5.8799999999999892      50.960000000000001       43.11999999999999
   238   1      7.8399999999999972                      49       43.11999999999999
   239   1      7.8399999999999972      50.960000000000001      41.159999999999989
   240   1      5.8799999999999892                      49      45.079999999999991
   241   1      5.8799999999999892      50.960000000000001      47.039999999999992
   242   1      7.8399999999999972                      49      47.039999999999992
   243   1      7.8399999999999972      50.960000000000001      45.079999999999991
   244   1      5.8799999999999892                      49                      49
   245   1      5.8799999999999892      50.960000000000001      50.960000000000001
   246   1      7.8399999999999972                      49      50.960000000000001
   247   1      7.8399999999999972      50.960000000000001                      49
   248   1      5.8799999999999892                      49      52.919999999999987
   249   1      5.8799999999999892      50.960000000000001      54.879999999999988
   250   1      7.8399999999999972                      49      54.879999999999988
   251   1      7.8399999999999972      50.960000000000001      52.919999999999987
   252   1      5.8799999999999892                      49      56.839999999999989
   253   1      5.8799999999999892      50.960000000000001      58.799999999999997
   254   1      7.8399999999999972                      49      58.799999999999997
   255   1      7.8399999999999972      50.960000000000001      56.839999999999989
   256   1      5.8799999999999892                      49      60.759999999999998
   257   1      5.8799999999999892      50.960000000000001      62.719999999999985
   258   1      7.8399999999999972                      49      62.719999999999985
   259   1      7.8399999999999972      50.960000000000001      60.759999999999998
   260   1      7.8399999999999972                      49      66.639999999999986
   261   1      7.8399999999999972      50.960000000000001      64.679999999999993
   262   1      7.8399999999999972      52.919999999999987      31.359999999999992
   263   1      5.8799999999999892      54.879999999999988      35.279999999999994
   264   1      7.8399999999999972      52.919999999999987      35.279999999999994
   265   1      7.8399999999999972      54.879999999999988      33.319999999999993
   266   1      5.8799999999999892      52.919999999999987      37.239999999999995
   267   1      5.8799999999999892      54.879999999999988      39.200000000000003
   268   1      7.8399999999999972      52.919999999999987      39.200000000000003
   269   1      7.8399999999999972      54.879999999999988      37.239999999999995
   270   1      5.8799999999999892      52.919999999999987      41.159999999999989
   271   1      5.8799999999999892      54.879999999999988       43.11999999999999
   272   1      7.8399999999999972      52.919999999999987       43.11999999999999
   273   1      7.8399999999999972      54.879999999999988      41.159999999999989
   274   1      5.8799999999999892      52.919999999999987      45.079999999999991
   275   1      5.8799999999999892      54.879999999999988      47.039999999999992
   276   1      7.8399999999999972      52.919999999999987      47.039999999999992
   277   1      7.8399999999999972      54.879999999999988      45.079999999999991
   278   1      5.8799999999999892      52.919999999999987                      49
   279   1      5.8799999999999892      54.879999999999988      50.960000000000001
   280   1      7.8399999999999972      52.919999999999987      50.960000000000001
   281   1      7.8399999999999972      54.879999999999988                      49
   282   1      5.8799999999999892      52.919999999999987      52.919999999999987
   283   1      5.8799999999999892      54.879999999999988      54.879999999999988
   284   1      7.8399999999999972      52.919999999999987      54.879999999999988
   285   1      7.8399999999999972      54.879999999999988      52.919999999999987
   286   1      5.8799999999999892      52.919999999999987      56.839999999999989
   287   1      5.8799999999999892      54.879999999999988      58.799999999999997
   288   1      7.8399999999999972      52.919999999999987      58.799999999999997
   289   1      7.8399999999999972      54.879999999999988      56.839999999999989
   290   1      5.8799999999999892      52.919999999999987      60.759999999999998
   291   1      5.8799999999999892      54.879999999999988      62.719999999999985
   292   1      7.8399999999999972      52.919999999999987      62.719999999999985
   293   1      7.8399999999999972      54.879999999999988      60.759999999999998
   294   1      7.8399999999999972      52.919999999999987      66.639999999999986
   295   1      7.8399999999999972      54.879999999999988      64.679999999999993
   296   1      7.8399999999999972      56.839999999999989      31.359999999999992
   297   1      5.8799999999999892      58.799999999999997      35.279999999999994
   298   1      7.8399999999999972      56.839999999999989      35.279999999999994
   299   1      7.8399999999999972      58.799999999999997      33.319999999999993
   300   1      5.8799999999999892      56.839999999999989      37.239999999999995
   301   1      5.8799999999999892      58.799999999999997      39.200000000000003
   302   1      7.8399999999999972      56.839999999999989      39.200000000000003
   303   1      7.8399999999999972      58.799999999999997      37.239999999999995
   304   1      5.8799999999999892      56.839999999999989      41.159999999999989
   305   1      5.8799999999999892      58.799999999999997       43.11999999999999
   306   1      7.8399999999999972      56.839999999999989       43.11999999999999
   307   1      7.8399999999999972      58.799999999999997      41.159999999999989
   308   1      5.8799999999999892      56.839999999999989      45.079999999999991
   309   1      5.8799999999999892      58.799999999999997      47.039999999999992
   310   1      7.8399999999999972      56.839999999999989      47.039999999999992
   311   1      7.8399999999999972      58.799999999999997      45.079999999999991
   312   1      5.8799999999999892      56.839999999999989                      49
   313   1      5.8799999999999892      58.799999999999997      50.960000000000001
   314   1      7.8399999999999972      56.839999999999989      50.960000000000001
   315   1      7.8399999999999972      58.799999999999997                      49
   316   1      5.8799999999999892      56.839999999999989      52.919999999999987
   317   1      5.8799999999999892      58.799999999999997      54.879999999999988
   318   1      7.8399999999999972      56.839999999999989      54.879999999999988
   319   1      7.8399999999999972      58.799999999999997      52.919999999999987
   320   1      5.8799999999999892      56.839999999999989      56.839999999999989
   321   1      5.8799999999999892      58.799999999999997      58.799999999999997
   322   1      7.8399999999999972      56.839999999999989      58.799999999999997
   323   1      7.8399999999999972      58.799999999999997      56.839999999999989
   324   1      5.8799999999999892      56.839999999999989      60.759999999999998
   325   1      5.8799999999999892      58.799999999999997      62.719999999999985
   326   1      7.8399999999999972      56.839999999999989      62.719999999999985
   327   1      7.8399999999999972      58.799999999999997      60.759999999999998
   328   1      7.8399999999999972      56.839999999999989      66.639999999999986
   329   1      7.8399999999999972      58.799999999999997      64.679999999999993
   330   1      7.8399999999999972      60.759999999999998      31.359999999999992
   331   1      5.8799999999999892      62.719999999999985      35.279999999999994
   332   1      7.8399999999999972      60.759999999999998      35.279999999999994
   333   1      7.8399999999999972      62.719999999999985      33.319999999999993
   334   1      5.8799999999999892      60.759999999999998      37.239999999999995
   335   1      5.8799999999999892      62.719999999999985      39.200000000000003
   336   1      7.8399999999999972      60.759999999999998      39.200000000000003
   337   1      7.8399999999999972      62.719999999999985      37.239999999999995
   338   1      5.8799999999999892      60.759999999999998      41.159999999999989
   339   1      5.8799999999999892      62.719999999999985       43.11999999999999
   340   1      7.8399999999999972      60.759999999999998       43.11999999999999
   341   1      7.8399999999999972      62.719999999999985      41.159999999999989
   342   1      5.8799999999999892      60.759999999999998      45.079999999999991
   343   1      5.8799999999999892      62.719999999999985      47.039999999999992
   344   1      7.8399999999999972      60.759999999999998      47.039999999999992
   345   1      7.8399999999999972      62.719999999999985      45.079999999999991
   346   1      5.8799999999999892      60.759999999999998                      49
   347   1      5.8799999999999892      62.719999999999985      50.960000000000001
   348   1      7.8399999999999972      60.759999999999998      50.960000000000001
   349   1      7.8399999999999972      62.719999999999985                      49
   350   1      5.8799999999999892      60.759999999999998      52.919999999999987
   351   1      5.8799999999999892      62.719999999999985      54.879999999999988
   352   1      7.8399999999999972      60.759999999999998      54.879999999999988
   353   1      7.8399999999999972      62.719999999999985      52.919999999999987
   354   1      5.8799999999999892      60.759999999999998      56.839999999999989
   355   1      5.8799999999999892      62.719999999999985      58.799999999999997
   356   1      7.8399999999999972      60.759999999999998      58.799999999999997
   357   1      7.8399999999999972      62.719999999999985      56.839999999999989
   358   1      5.8799999999999892      60.759999999999998      60.759999999999998