model_files/Pt/Pt_10000/Pt_530/data.Pt_530_fcc_9851 (written by ASE) 

9851 	 atoms 
1  atom types
0.0                      70  xlo xhi
0.0                      70  ylo yhi
0.0                      70  zlo zhi


Atoms 

     1   1      1.9600000000000009      31.359999999999996                   33.32
     2   1      1.9600000000000009                   33.32      31.359999999999996
     3   1      1.9600000000000009      31.359999999999996      37.240000000000002
     4   1      1.9600000000000009                   33.32      35.280000000000001
     5   1      1.9600000000000009                   33.32      39.199999999999996
     6   1      1.9600000000000009      35.280000000000001                   33.32
     7   1      1.9600000000000009      37.240000000000002      31.359999999999996
     8   1                       0      35.280000000000001      35.280000000000001
     9   1      1.9600000000000009      35.280000000000001      37.240000000000002
    10   1      1.9600000000000009      37.240000000000002      35.280000000000001
    11   1      1.9600000000000009      37.240000000000002      39.199999999999996
    12   1      1.9600000000000009      39.199999999999996                   33.32
    13   1      1.9600000000000009      39.199999999999996      37.240000000000002
    14   1      5.8799999999999981      25.479999999999997      27.439999999999998
    15   1      5.8799999999999981      25.479999999999997      31.359999999999996
    16   1      5.8799999999999981      25.479999999999997      35.280000000000001
    17   1      5.8799999999999981      25.479999999999997      39.199999999999996
    18   1      5.8799999999999981      25.479999999999997      43.119999999999997
    19   1      5.8799999999999981      27.439999999999998      25.479999999999997
    20   1      3.9199999999999982      27.439999999999998      27.439999999999998
    21   1      3.9199999999999982      29.399999999999999      29.399999999999999
    22   1      5.8799999999999981      27.439999999999998      29.399999999999999
    23   1      5.8799999999999981      29.399999999999999      27.439999999999998
    24   1      3.9199999999999982      27.439999999999998      31.359999999999996
    25   1      3.9199999999999982      29.399999999999999                   33.32
    26   1      5.8799999999999981      27.439999999999998                   33.32
    27   1      5.8799999999999981      29.399999999999999      31.359999999999996
    28   1      3.9199999999999982      27.439999999999998      35.280000000000001
    29   1      3.9199999999999982      29.399999999999999      37.240000000000002
    30   1      5.8799999999999981      27.439999999999998      37.240000000000002
    31   1      5.8799999999999981      29.399999999999999      35.280000000000001
    32   1      3.9199999999999982      27.439999999999998      39.199999999999996
    33   1      3.9199999999999982      29.399999999999999      41.159999999999997
    34   1      5.8799999999999981      27.439999999999998      41.159999999999997
    35   1      5.8799999999999981      29.399999999999999      39.199999999999996
    36   1      3.9199999999999982      27.439999999999998      43.119999999999997
    37   1      5.8799999999999981      27.439999999999998      45.079999999999991
    38   1      5.8799999999999981      29.399999999999999      43.119999999999997
    39   1      5.8799999999999981      31.359999999999996      25.479999999999997
    40   1      3.9199999999999982      31.359999999999996      27.439999999999998
    41   1      3.9199999999999982                   33.32      29.399999999999999
    42   1      5.8799999999999981      31.359999999999996      29.399999999999999
    43   1      5.8799999999999981                   33.32      27.439999999999998
    44   1      3.9199999999999982      31.359999999999996      31.359999999999996
    45   1      3.9199999999999982                   33.32                   33.32
    46   1      5.8799999999999981      31.359999999999996                   33.32
    47   1      5.8799999999999981                   33.32      31.359999999999996
    48   1      3.9199999999999982      31.359999999999996      35.280000000000001
    49   1      3.9199999999999982                   33.32      37.240000000000002
    50   1      5.8799999999999981      31.359999999999996      37.240000000000002
    51   1      5.8799999999999981                   33.32      35.280000000000001
    52   1      3.9199999999999982      31.359999999999996      39.199999999999996
    53   1      3.9199999999999982                   33.32      41.159999999999997
    54   1      5.8799999999999981      31.359999999999996      41.159999999999997
    55   1      5.8799999999999981                   33.32      39.199999999999996
    56   1      3.9199999999999982      31.359999999999996      43.119999999999997
    57   1      5.8799999999999981      31.359999999999996      45.079999999999991
    58   1      5.8799999999999981                   33.32      43.119999999999997
    59   1      5.8799999999999981      35.280000000000001      25.479999999999997
    60   1      3.9199999999999982      35.280000000000001      27.439999999999998
    61   1      3.9199999999999982      37.240000000000002      29.399999999999999
    62   1      5.8799999999999981      35.280000000000001      29.399999999999999
    63   1      5.8799999999999981      37.240000000000002      27.439999999999998
    64   1      3.9199999999999982      35.280000000000001      31.359999999999996
    65   1      3.9199999999999982      37.240000000000002                   33.32
    66   1      5.8799999999999981      35.280000000000001                   33.32
    67   1      5.8799999999999981      37.240000000000002      31.359999999999996
    68   1      3.9199999999999982      35.280000000000001      35.280000000000001
    69   1      3.9199999999999982      37.240000000000002      37.240000000000002
    70   1      5.8799999999999981      35.280000000000001      37.240000000000002
    71   1      5.8799999999999981      37.240000000000002      35.280000000000001
    72   1      3.9199999999999982      35.280000000000001      39.199999999999996
    73   1      3.9199999999999982      37.240000000000002      41.159999999999997
    74   1      5.8799999999999981      35.280000000000001      41.159999999999997
    75   1      5.8799999999999981      37.240000000000002      39.199999999999996
    76   1      3.9199999999999982      35.280000000000001      43.119999999999997
    77   1      5.8799999999999981      35.280000000000001      45.079999999999991
    78   1      5.8799999999999981      37.240000000000002      43.119999999999997
    79   1      5.8799999999999981      39.199999999999996      25.479999999999997
    80   1      3.9199999999999982      39.199999999999996      27.439999999999998
    81   1      3.9199999999999982      41.159999999999997      29.399999999999999
    82   1      5.8799999999999981      39.199999999999996      29.399999999999999
    83   1      5.8799999999999981      41.159999999999997      27.439999999999998
    84   1      3.9199999999999982      39.199999999999996      31.359999999999996
    85   1      3.9199999999999982      41.159999999999997                   33.32
    86   1      5.8799999999999981      39.199999999999996                   33.32
    87   1      5.8799999999999981      41.159999999999997      31.359999999999996
    88   1      3.9199999999999982      39.199999999999996      35.280000000000001
    89   1      3.9199999999999982      41.159999999999997      37.240000000000002
    90   1      5.8799999999999981      39.199999999999996      37.240000000000002
    91   1      5.8799999999999981      41.159999999999997      35.280000000000001
    92   1      3.9199999999999982      39.199999999999996      39.199999999999996
    93   1      3.9199999999999982      41.159999999999997      41.159999999999997
    94   1      5.8799999999999981      39.199999999999996      41.159999999999997
    95   1      5.8799999999999981      41.159999999999997      39.199999999999996
    96   1      3.9199999999999982      39.199999999999996      43.119999999999997
    97   1      5.8799999999999981      39.199999999999996      45.079999999999991
    98   1      5.8799999999999981      41.159999999999997      43.119999999999997
    99   1      5.8799999999999981      43.119999999999997      25.479999999999997
   100   1      3.9199999999999982      43.119999999999997      27.439999999999998
   101   1      5.8799999999999981      43.119999999999997      29.399999999999999
   102   1      5.8799999999999981      45.079999999999991      27.439999999999998
   103   1      3.9199999999999982      43.119999999999997      31.359999999999996
   104   1      5.8799999999999981      43.119999999999997                   33.32
   105   1      5.8799999999999981      45.079999999999991      31.359999999999996
   106   1      3.9199999999999982      43.119999999999997      35.280000000000001
   107   1      5.8799999999999981      43.119999999999997      37.240000000000002
   108   1      5.8799999999999981      45.079999999999991      35.280000000000001
   109   1      3.9199999999999982      43.119999999999997      39.199999999999996
   110   1      5.8799999999999981      43.119999999999997      41.159999999999997
   111   1      5.8799999999999981      45.079999999999991      39.199999999999996
   112   1      3.9199999999999982      43.119999999999997      43.119999999999997
   113   1      5.8799999999999981      43.119999999999997      45.079999999999991
   114   1      5.8799999999999981      45.079999999999991      43.119999999999997
   115   1      9.7999999999999972      17.640000000000001      19.599999999999998
   116   1      9.7999999999999972      17.640000000000001      23.519999999999992
   117   1      9.7999999999999972      17.640000000000001      27.439999999999998
   118   1      9.7999999999999972      17.640000000000001      31.359999999999996
   119   1      9.7999999999999972      17.640000000000001      35.280000000000001
   120   1      9.7999999999999972      17.640000000000001      39.199999999999996
   121   1      9.7999999999999972      17.640000000000001      43.119999999999997
   122   1      9.7999999999999972      17.640000000000001      47.039999999999992
   123   1      9.7999999999999972      17.640000000000001      50.959999999999994
   124   1      9.7999999999999972      19.599999999999998      17.640000000000001
   125   1      7.8399999999999963      21.559999999999999      21.559999999999999
   126   1      9.7999999999999972      19.599999999999998      21.559999999999999
   127   1      9.7999999999999972      21.559999999999999      19.599999999999998
   128   1      7.8399999999999963      21.559999999999999      25.479999999999997
   129   1      9.7999999999999972      19.599999999999998      25.479999999999997
   130   1      9.7999999999999972      21.559999999999999      23.519999999999992
   131   1      7.8399999999999963      21.559999999999999      29.399999999999999
   132   1      9.7999999999999972      19.599999999999998      29.399999999999999
   133   1      9.7999999999999972      21.559999999999999      27.439999999999998
   134   1      7.8399999999999963      21.559999999999999                   33.32
   135   1      9.7999999999999972      19.599999999999998                   33.32
   136   1      9.7999999999999972      21.559999999999999      31.359999999999996
   137   1      7.8399999999999963      21.559999999999999      37.240000000000002
   138   1      9.7999999999999972      19.599999999999998      37.240000000000002
   139   1      9.7999999999999972      21.559999999999999      35.280000000000001
   140   1      7.8399999999999963      21.559999999999999      41.159999999999997
   141   1      9.7999999999999972      19.599999999999998      41.159999999999997
   142   1      9.7999999999999972      21.559999999999999      39.199999999999996
   143   1      7.8399999999999963      21.559999999999999      45.079999999999991
   144   1      9.7999999999999972      19.599999999999998      45.079999999999991
   145   1      9.7999999999999972      21.559999999999999      43.119999999999997
   146   1      7.8399999999999963      21.559999999999999                      49
   147   1      9.7999999999999972      19.599999999999998                      49
   148   1      9.7999999999999972      21.559999999999999      47.039999999999992
   149   1      9.7999999999999972      19.599999999999998      52.919999999999995
   150   1      9.7999999999999972      21.559999999999999      50.959999999999994
   151   1      9.7999999999999972      23.519999999999992      17.640000000000001
   152   1      7.8399999999999963      25.479999999999997      21.559999999999999
   153   1      9.7999999999999972      23.519999999999992      21.559999999999999
   154   1      9.7999999999999972      25.479999999999997      19.599999999999998
   155   1      7.8399999999999963      23.519999999999992      23.519999999999992
   156   1      7.8399999999999963      25.479999999999997      25.479999999999997
   157   1      9.7999999999999972      23.519999999999992      25.479999999999997
   158   1      9.7999999999999972      25.479999999999997      23.519999999999992
   159   1      7.8399999999999963      23.519999999999992      27.439999999999998
   160   1      7.8399999999999963      25.479999999999997      29.399999999999999
   161   1      9.7999999999999972      23.519999999999992      29.399999999999999
   162   1      9.7999999999999972      25.479999999999997      27.439999999999998
   163   1      7.8399999999999963      23.519999999999992      31.359999999999996
   164   1      7.8399999999999963      25.479999999999997                   33.32
   165   1      9.7999999999999972      23.519999999999992                   33.32
   166   1      9.7999999999999972      25.479999999999997      31.359999999999996
   167   1      7.8399999999999963      23.519999999999992      35.280000000000001
   168   1      7.8399999999999963      25.479999999999997      37.240000000000002
   169   1      9.7999999999999972      23.519999999999992      37.240000000000002
   170   1      9.7999999999999972      25.479999999999997      35.280000000000001
   171   1      7.8399999999999963      23.519999999999992      39.199999999999996
   172   1      7.8399999999999963      25.479999999999997      41.159999999999997
   173   1      9.7999999999999972      23.519999999999992      41.159999999999997
   174   1      9.7999999999999972      25.479999999999997      39.199999999999996
   175   1      7.8399999999999963      23.519999999999992      43.119999999999997
   176   1      7.8399999999999963      25.479999999999997      45.079999999999991
   177   1      9.7999999999999972      23.519999999999992      45.079999999999991
   178   1      9.7999999999999972      25.479999999999997      43.119999999999997
   179   1      7.8399999999999963      23.519999999999992      47.039999999999992
   180   1      7.8399999999999963      25.479999999999997                      49
   181   1      9.7999999999999972      23.519999999999992                      49
   182   1      9.7999999999999972      25.479999999999997      47.039999999999992
   183   1      9.7999999999999972      23.519999999999992      52.919999999999995
   184   1      9.7999999999999972      25.479999999999997      50.959999999999994
   185   1      9.7999999999999972      27.439999999999998      17.640000000000001
   186   1      7.8399999999999963      29.399999999999999      21.559999999999999
   187   1      9.7999999999999972      27.439999999999998      21.559999999999999
   188   1      9.7999999999999972      29.399999999999999      19.599999999999998
   189   1      7.8399999999999963      27.439999999999998      23.519999999999992
   190   1      7.8399999999999963      29.399999999999999      25.479999999999997
   191   1      9.7999999999999972      27.439999999999998      25.479999999999997
   192   1      9.7999999999999972      29.399999999999999      23.519999999999992
   193   1      7.8399999999999963      27.439999999999998      27.439999999999998
   194   1      7.8399999999999963      29.399999999999999      29.399999999999999
   195   1      9.7999999999999972      27.439999999999998      29.399999999999999
   196   1      9.7999999999999972      29.399999999999999      27.439999999999998
   197   1      7.8399999999999963      27.439999999999998      31.359999999999996
   198   1      7.8399999999999963      29.399999999999999                   33.32
   199   1      9.7999999999999972      27.439999999999998                   33.32
   200   1      9.7999999999999972      29.399999999999999      31.359999999999996
   201   1      7.8399999999999963      27.439999999999998      35.280000000000001
   202   1      7.8399999999999963      29.399999999999999      37.240000000000002
   203   1      9.7999999999999972      27.439999999999998      37.240000000000002
   204   1      9.7999999999999972      29.399999999999999      35.280000000000001
   205   1      7.8399999999999963      27.439999999999998      39.199999999999996
   206   1      7.8399999999999963      29.399999999999999      41.159999999999997
   207   1      9.7999999999999972      27.439999999999998      41.159999999999997
   208   1      9.7999999999999972      29.399999999999999      39.199999999999996
   209   1      7.8399999999999963      27.439999999999998      43.119999999999997
   210   1      7.8399999999999963      29.399999999999999      45.079999999999991
   211   1      9.7999999999999972      27.439999999999998      45.079999999999991
   212   1      9.7999999999999972      29.399999999999999      43.119999999999997
   213   1      7.8399999999999963      27.439999999999998      47.039999999999992
   214   1      7.8399999999999963      29.399999999999999                      49
   215   1      9.7999999999999972      27.439999999999998                      49
   216   1      9.7999999999999972      29.399999999999999      47.039999999999992
   217   1      9.7999999999999972      27.439999999999998      52.919999999999995
   218   1      9.7999999999999972      29.399999999999999      50.959999999999994
   219   1      9.7999999999999972      31.359999999999996      17.640000000000001
   220   1      7.8399999999999963                   33.32      21.559999999999999
   221   1      9.7999999999999972      31.359999999999996      21.559999999999999
   222   1      9.7999999999999972                   33.32      19.599999999999998
   223   1      7.8399999999999963      31.359999999999996      23.519999999999992
   224   1      7.8399999999999963                   33.32      25.479999999999997
   225   1      9.7999999999999972      31.359999999999996      25.479999999999997
   226   1      9.7999999999999972                   33.32      23.519999999999992
   227   1      7.8399999999999963      31.359999999999996      27.439999999999998
   228   1      7.8399999999999963                   33.32      29.399999999999999
   229   1      9.7999999999999972      31.359999999999996      29.399999999999999
   230   1      9.7999999999999972                   33.32      27.439999999999998
   231   1      7.8399999999999963      31.359999999999996      31.359999999999996
   232   1      7.8399999999999963                   33.32                   33.32
   233   1      9.7999999999999972      31.359999999999996                   33.32
   234   1      9.7999999999999972                   33.32      31.359999999999996
   235   1      7.8399999999999963      31.359999999999996      35.280000000000001
   236   1      7.8399999999999963                   33.32      37.240000000000002
   237   1      9.7999999999999972      31.359999999999996      37.240000000000002
   238   1      9.7999999999999972                   33.32      35.280000000000001
   239   1      7.8399999999999963      31.359999999999996      39.199999999999996
   240   1      7.8399999999999963                   33.32      41.159999999999997
   241   1      9.7999999999999972      31.359999999999996      41.159999999999997
   242   1      9.7999999999999972                   33.32      39.199999999999996
   243   1      7.8399999999999963      31.359999999999996      43.119999999999997
   244   1      7.8399999999999963                   33.32      45.079999999999991
   245   1      9.7999999999999972      31.359999999999996      45.079999999999991
   246   1      9.7999999999999972                   33.32      43.119999999999997
   247   1      7.8399999999999963      31.359999999999996      47.039999999999992
   248   1      7.8399999999999963                   33.32                      49
   249   1      9.7999999999999972      31.359999999999996                      49
   250   1      9.7999999999999972                   33.32      47.039999999999992
   251   1      9.7999999999999972      31.359999999999996      52.919999999999995
   252   1      9.7999999999999972                   33.32      50.959999999999994
   253   1      9.7999999999999972      35.280000000000001      17.640000000000001
   254   1      7.8399999999999963      37.240000000000002      21.559999999999999
   255   1      9.7999999999999972      35.280000000000001      21.559999999999999
   256   1      9.7999999999999972      37.240000000000002      19.599999999999998
   257   1      7.8399999999999963      35.280000000000001      23.519999999999992
   258   1      7.8399999999999963      37.240000000000002      25.479999999999997
   259   1      9.7999999999999972      35.280000000000001      25.479999999999997
   260   1      9.7999999999999972      37.240000000000002      23.519999999999992
   261   1      7.8399999999999963      35.280000000000001      27.439999999999998
   262   1      7.8399999999999963      37.240000000000002      29.399999999999999
   263   1      9.7999999999999972      35.280000000000001      29.399999999999999
   264   1      9.7999999999999972      37.240000000000002      27.439999999999998
   265   1      7.8399999999999963      35.280000000000001      31.359999999999996
   266   1      7.8399999999999963      37.240000000000002                   33.32
   267   1      9.7999999999999972      35.280000000000001                   33.32
   268   1      9.7999999999999972      37.240000000000002      31.359999999999996
   269   1      7.8399999999999963      35.280000000000001      35.280000000000001
   270   1      7.8399999999999963      37.240000000000002      37.240000000000002
   271   1      9.7999999999999972      35.280000000000001      37.240000000000002
   272   1      9.7999999999999972      37.240000000000002      35.280000000000001
   273   1      7.8399999999999963      35.280000000000001      39.199999999999996
   274   1      7.8399999999999963      37.240000000000002      41.159999999999997
   275   1      9.7999999999999972      35.280000000000001      41.159999999999997
   276   1      9.7999999999999972      37.240000000000002      39.199999999999996
   277   1      7.8399999999999963      35.280000000000001      43.119999999999997
   278   1      7.8399999999999963      37.240000000000002      45.079999999999991
   279   1      9.7999999999999972      35.280000000000001      45.079999999999991
   280   1      9.7999999999999972      37.240000000000002      43.119999999999997
   281   1      7.8399999999999963      35.280000000000001      47.039999999999992
   282   1      7.8399999999999963      37.240000000000002                      49
   283   1      9.7999999999999972      35.280000000000001                      49
   284   1      9.7999999999999972      37.240000000000002      47.039999999999992
   285   1      9.7999999999999972      35.280000000000001      52.919999999999995
   286   1      9.7999999999999972      37.240000000000002      50.959999999999994
   287   1      9.7999999999999972      39.199999999999996      17.640000000000001
   288   1      7.8399999999999963      41.159999999999997      21.559999999999999
   289   1      9.7999999999999972      39.199999999999996      21.559999999999999
   290   1      9.7999999999999972      41.159999999999997      19.599999999999998
   291   1      7.8399999999999963      39.199999999999996      23.519999999999992
   292   1      7.8399999999999963      41.159999999999997      25.479999999999997
   293   1      9.7999999999999972      39.199999999999996      25.479999999999997
   294   1      9.7999999999999972      41.159999999999997      23.519999999999992
   295   1      7.8399999999999963      39.199999999999996      27.439999999999998
   296   1      7.8399999999999963      41.159999999999997      29.399999999999999
   297   1      9.7999999999999972      39.199999999999996      29.399999999999999
   298   1      9.7999999999999972      41.159999999999997      27.439999999999998
   299   1      7.8399999999999963      39.199999999999996      31.359999999999996
   300   1      7.8399999999999963      41.159999999999997                   33.32
   301   1      9.7999999999999972      39.199999999999996                   33.32
   302   1      9.7999999999999972      41.159999999999997      31.359999999999996
   303   1      7.8399999999999963      39.199999999999996      35.280000000000001
   304   1      7.8399999999999963      41.159999999999997      37.240000000000002
   305   1      9.7999999999999972      39.199999999999996      37.240000000000002
   306   1      9.7999999999999972      41.159999999999997      35.280000000000001
   307   1      7.8399999999999963      39.199999999999996      39.199999999999996
   308   1      7.8399999999999963      41.159999999999997      41.159999999999997
   309   1      9.7999999999999972      39.199999999999996      41.159999999999997
   310   1      9.7999999999999972      41.159999999999997      39.199999999999996
   311   1      7.8399999999999963      39.199999999999996      43.119999999999997
   312   1      7.8399999999999963      41.159999999999997      45.079999999999991
   313   1      9.7999999999999972      39.199999999999996      45.079999999999991
   314   1      9.7999999999999972      41.159999999999997      43.119999999999997
   315   1      7.8399999999999963      39.199999999999996      47.039999999999992
   316   1      7.8399999999999963      41.159999999999997                      49
   317   1      9.7999999999999972      39.199999999999996                      49
   318   1      9.7999999999999972      41.159999999999997      47.039999999999992
   319   1      9.7999999999999972      39.199999999999996      52.919999999999995
   320   1      9.7999999999999972      41.159999999999997      50.959999999999994
   321   1      9.7999999999999972      43.119999999999997      17.640000000000001
   322   1      7.8399999999999963      45.079999999999991      21.559999999999999
   323   1      9.7999999999999972      43.119999999999997      21.559999999999999
   324   1      9.7999999999999972      45.079999999999991      19.599999999999998
   325   1      7.8399999999999963      43.119999999999997      23.519999999999992
   326   1      7.8399999999999963      45.079999999999991      25.479999999999997
   327   1      9.7999999999999972      43.119999999999997      25.479999999999997
   328   1      9.7999999999999972      45.079999999999991      23.519999999999992
   329   1      7.8399999999999963      43.119999999999997      27.439999999999998
   330   1      7.8399999999999963      45.079999999999991      29.399999999999999
   331   1      9.7999999999999972      43.119999999999997      29.399999999999999
   332   1      9.7999999999999972      45.079999999999991      27.439999999999998
   333   1      7.8399999999999963      43.119999999999997      31.359999999999996
   334   1      7.8399999999999963      45.079999999999991                   33.32
   335   1      9.7999999999999972      43.119999999999997                   33.32
   336   1      9.7999999999999972      45.079999999999991      31.359999999999996
   337   1      7.8399999999999963      43.119999999999997      35.280000000000001
   338   1      7.8399999999999963      45.079999999999991      37.240000000000002
   339   1      9.7999999999999972      43.119999999999997      37.240000000000002
   340   1      9.7999999999999972      45.079999999999991      35.280000000000001
   341   1      7.8399999999999963      43.119999999999997      39.199999999999996
   342   1      7.8399999999999963      45.079999999999991      41.159999999999997
   343   1      9.7999999999999972      43.119999999999997      41.159999999999997
   344   1      9.7999999999999972      45.079999999999991      39.199999999999996
   345   1      7.8399999999999963      43.119999999999997      43.119999999999997
   346   1      7.8399999999999963      45.079999999999991      45.079999999999991
   347   1      9.7999999999999972      43.119999999999997      45.079999999999991
   348   1      9.7999999999999972      45.079999999999991      43.119999999999997
   349   1      7.8399999999999963      43.119999999999997      47.039999999999992
   350   1      7.8399999999999963      45.079999999999991                      49
   351   1      9.7999999999999972      43.119999999999997                      49
   352   1      9.7999999999999972      45.079999999999991      47.039999999999992
   353   1      9.7999999999999972      43.119999999999997      52.919999999999995
   354   1      9.7999999999999972      45.079999999999991      50.959999999999994
   355   1      9.7999999999999972      47.039999999999992      17.640000000000001
   356   1      7.8399999999999963                      49      21.559999999999999
   357   1      9.7999999999999972      47.039999999999992      21.559999999999999
   358   1      9.7999999999999972                      49      19.599999999999998