model_files/Pt/Pt_30000/Pt_320/data.Pt_320_fcc_29879 (written by ASE) 

29879 	 atoms 
1  atom types
0.0                     103  xlo xhi
0.0                     103  ylo yhi
0.0                     103  zlo zhi


Atoms 

     1   1      1.9600000000000148      45.080000000000005      47.040000000000006
     2   1      1.9600000000000148      45.080000000000005      50.960000000000001
     3   1      1.9600000000000148      45.080000000000005      54.880000000000003
     4   1      1.9600000000000148      47.040000000000006      45.080000000000005
     5   1  1.4210854715202002e-14      47.040000000000006      47.040000000000006
     6   1  1.4210854715202002e-14      49.000000000000014      49.000000000000014
     7   1      1.9600000000000148      47.040000000000006      49.000000000000014
     8   1      1.9600000000000148      49.000000000000014      47.040000000000006
     9   1  1.4210854715202002e-14      47.040000000000006      50.960000000000001
    10   1  1.4210854715202002e-14      49.000000000000014      52.920000000000009
    11   1      1.9600000000000148      47.040000000000006      52.920000000000009
    12   1      1.9600000000000148      49.000000000000014      50.960000000000001
    13   1  1.4210854715202002e-14      47.040000000000006      54.880000000000003
    14   1      1.9600000000000148      47.040000000000006      56.840000000000003
    15   1      1.9600000000000148      49.000000000000014      54.880000000000003
    16   1      1.9600000000000148      50.960000000000001      45.080000000000005
    17   1  1.4210854715202002e-14      50.960000000000001      47.040000000000006
    18   1  1.4210854715202002e-14      52.920000000000009      49.000000000000014
    19   1      1.9600000000000148      50.960000000000001      49.000000000000014
    20   1      1.9600000000000148      52.920000000000009      47.040000000000006
    21   1  1.4210854715202002e-14      50.960000000000001      50.960000000000001
    22   1  1.4210854715202002e-14      52.920000000000009      52.920000000000009
    23   1      1.9600000000000148      50.960000000000001      52.920000000000009
    24   1      1.9600000000000148      52.920000000000009      50.960000000000001
    25   1  1.4210854715202002e-14      50.960000000000001      54.880000000000003
    26   1      1.9600000000000148      50.960000000000001      56.840000000000003
    27   1      1.9600000000000148      52.920000000000009      54.880000000000003
    28   1      1.9600000000000148      54.880000000000003      45.080000000000005
    29   1  1.4210854715202002e-14      54.880000000000003      47.040000000000006
    30   1      1.9600000000000148      54.880000000000003      49.000000000000014
    31   1      1.9600000000000148      56.840000000000003      47.040000000000006
    32   1  1.4210854715202002e-14      54.880000000000003      50.960000000000001
    33   1      1.9600000000000148      54.880000000000003      52.920000000000009
    34   1      1.9600000000000148      56.840000000000003      50.960000000000001
    35   1  1.4210854715202002e-14      54.880000000000003      54.880000000000003
    36   1      1.9600000000000148      54.880000000000003      56.840000000000003
    37   1      1.9600000000000148      56.840000000000003      54.880000000000003
    38   1      3.9200000000000155      41.160000000000004      41.160000000000004
    39   1      5.8800000000000088       39.20000000000001      41.160000000000004
    40   1      5.8800000000000088      41.160000000000004       39.20000000000001
    41   1      3.9200000000000155      41.160000000000004      45.080000000000005
    42   1      5.8800000000000088       39.20000000000001      45.080000000000005
    43   1      5.8800000000000088      41.160000000000004      43.120000000000012
    44   1      3.9200000000000155      41.160000000000004      49.000000000000014
    45   1      5.8800000000000088       39.20000000000001      49.000000000000014
    46   1      5.8800000000000088      41.160000000000004      47.040000000000006
    47   1      3.9200000000000155      41.160000000000004      52.920000000000009
    48   1      5.8800000000000088       39.20000000000001      52.920000000000009
    49   1      5.8800000000000088      41.160000000000004      50.960000000000001
    50   1      3.9200000000000155      41.160000000000004      56.840000000000003
    51   1      5.8800000000000088       39.20000000000001      56.840000000000003
    52   1      5.8800000000000088      41.160000000000004      54.880000000000003
    53   1      3.9200000000000155      41.160000000000004      60.759999999999998
    54   1      5.8800000000000088       39.20000000000001      60.759999999999998
    55   1      5.8800000000000088      41.160000000000004      58.800000000000011
    56   1      5.8800000000000088      41.160000000000004      62.720000000000006
    57   1      3.9200000000000155      45.080000000000005      41.160000000000004
    58   1      5.8800000000000088      43.120000000000012      41.160000000000004
    59   1      5.8800000000000088      45.080000000000005       39.20000000000001
    60   1      3.9200000000000155      43.120000000000012      43.120000000000012
    61   1      3.9200000000000155      45.080000000000005      45.080000000000005
    62   1      5.8800000000000088      43.120000000000012      45.080000000000005
    63   1      5.8800000000000088      45.080000000000005      43.120000000000012
    64   1      3.9200000000000155      43.120000000000012      47.040000000000006
    65   1      3.9200000000000155      45.080000000000005      49.000000000000014
    66   1      5.8800000000000088      43.120000000000012      49.000000000000014
    67   1      5.8800000000000088      45.080000000000005      47.040000000000006
    68   1      3.9200000000000155      43.120000000000012      50.960000000000001
    69   1      3.9200000000000155      45.080000000000005      52.920000000000009
    70   1      5.8800000000000088      43.120000000000012      52.920000000000009
    71   1      5.8800000000000088      45.080000000000005      50.960000000000001
    72   1      3.9200000000000155      43.120000000000012      54.880000000000003
    73   1      3.9200000000000155      45.080000000000005      56.840000000000003
    74   1      5.8800000000000088      43.120000000000012      56.840000000000003
    75   1      5.8800000000000088      45.080000000000005      54.880000000000003
    76   1      3.9200000000000155      43.120000000000012      58.800000000000011
    77   1      3.9200000000000155      45.080000000000005      60.759999999999998
    78   1      5.8800000000000088      43.120000000000012      60.759999999999998
    79   1      5.8800000000000088      45.080000000000005      58.800000000000011
    80   1      5.8800000000000088      45.080000000000005      62.720000000000006
    81   1      3.9200000000000155      49.000000000000014      41.160000000000004
    82   1      5.8800000000000088      47.040000000000006      41.160000000000004
    83   1      5.8800000000000088      49.000000000000014       39.20000000000001
    84   1      3.9200000000000155      47.040000000000006      43.120000000000012
    85   1      3.9200000000000155      49.000000000000014      45.080000000000005
    86   1      5.8800000000000088      47.040000000000006      45.080000000000005
    87   1      5.8800000000000088      49.000000000000014      43.120000000000012
    88   1      3.9200000000000155      47.040000000000006      47.040000000000006
    89   1      3.9200000000000155      49.000000000000014      49.000000000000014
    90   1      5.8800000000000088      47.040000000000006      49.000000000000014
    91   1      5.8800000000000088      49.000000000000014      47.040000000000006
    92   1      3.9200000000000155      47.040000000000006      50.960000000000001
    93   1      3.9200000000000155      49.000000000000014      52.920000000000009
    94   1      5.8800000000000088      47.040000000000006      52.920000000000009
    95   1      5.8800000000000088      49.000000000000014      50.960000000000001
    96   1      3.9200000000000155      47.040000000000006      54.880000000000003
    97   1      3.9200000000000155      49.000000000000014      56.840000000000003
    98   1      5.8800000000000088      47.040000000000006      56.840000000000003
    99   1      5.8800000000000088      49.000000000000014      54.880000000000003
   100   1      3.9200000000000155      47.040000000000006      58.800000000000011
   101   1      3.9200000000000155      49.000000000000014      60.759999999999998
   102   1      5.8800000000000088      47.040000000000006      60.759999999999998
   103   1      5.8800000000000088      49.000000000000014      58.800000000000011
   104   1      5.8800000000000088      49.000000000000014      62.720000000000006
   105   1      3.9200000000000155      52.920000000000009      41.160000000000004
   106   1      5.8800000000000088      50.960000000000001      41.160000000000004
   107   1      5.8800000000000088      52.920000000000009       39.20000000000001
   108   1      3.9200000000000155      50.960000000000001      43.120000000000012
   109   1      3.9200000000000155      52.920000000000009      45.080000000000005
   110   1      5.8800000000000088      50.960000000000001      45.080000000000005
   111   1      5.8800000000000088      52.920000000000009      43.120000000000012
   112   1      3.9200000000000155      50.960000000000001      47.040000000000006
   113   1      3.9200000000000155      52.920000000000009      49.000000000000014
   114   1      5.8800000000000088      50.960000000000001      49.000000000000014
   115   1      5.8800000000000088      52.920000000000009      47.040000000000006
   116   1      3.9200000000000155      50.960000000000001      50.960000000000001
   117   1      3.9200000000000155      52.920000000000009      52.920000000000009
   118   1      5.8800000000000088      50.960000000000001      52.920000000000009
   119   1      5.8800000000000088      52.920000000000009      50.960000000000001
   120   1      3.9200000000000155      50.960000000000001      54.880000000000003
   121   1      3.9200000000000155      52.920000000000009      56.840000000000003
   122   1      5.8800000000000088      50.960000000000001      56.840000000000003
   123   1      5.8800000000000088      52.920000000000009      54.880000000000003
   124   1      3.9200000000000155      50.960000000000001      58.800000000000011
   125   1      3.9200000000000155      52.920000000000009      60.759999999999998
   126   1      5.8800000000000088      50.960000000000001      60.759999999999998
   127   1      5.8800000000000088      52.920000000000009      58.800000000000011
   128   1      5.8800000000000088      52.920000000000009      62.720000000000006
   129   1      3.9200000000000155      56.840000000000003      41.160000000000004
   130   1      5.8800000000000088      54.880000000000003      41.160000000000004
   131   1      5.8800000000000088      56.840000000000003       39.20000000000001
   132   1      3.9200000000000155      54.880000000000003      43.120000000000012
   133   1      3.9200000000000155      56.840000000000003      45.080000000000005
   134   1      5.8800000000000088      54.880000000000003      45.080000000000005
   135   1      5.8800000000000088      56.840000000000003      43.120000000000012
   136   1      3.9200000000000155      54.880000000000003      47.040000000000006
   137   1      3.9200000000000155      56.840000000000003      49.000000000000014
   138   1      5.8800000000000088      54.880000000000003      49.000000000000014
   139   1      5.8800000000000088      56.840000000000003      47.040000000000006
   140   1      3.9200000000000155      54.880000000000003      50.960000000000001
   141   1      3.9200000000000155      56.840000000000003      52.920000000000009
   142   1      5.8800000000000088      54.880000000000003      52.920000000000009
   143   1      5.8800000000000088      56.840000000000003      50.960000000000001
   144   1      3.9200000000000155      54.880000000000003      54.880000000000003
   145   1      3.9200000000000155      56.840000000000003      56.840000000000003
   146   1      5.8800000000000088      54.880000000000003      56.840000000000003
   147   1      5.8800000000000088      56.840000000000003      54.880000000000003
   148   1      3.9200000000000155      54.880000000000003      58.800000000000011
   149   1      3.9200000000000155      56.840000000000003      60.759999999999998
   150   1      5.8800000000000088      54.880000000000003      60.759999999999998
   151   1      5.8800000000000088      56.840000000000003      58.800000000000011
   152   1      5.8800000000000088      56.840000000000003      62.720000000000006
   153   1      3.9200000000000155      60.759999999999998      41.160000000000004
   154   1      5.8800000000000088      58.800000000000011      41.160000000000004
   155   1      5.8800000000000088      60.759999999999998       39.20000000000001
   156   1      3.9200000000000155      58.800000000000011      43.120000000000012
   157   1      3.9200000000000155      60.759999999999998      45.080000000000005
   158   1      5.8800000000000088      58.800000000000011      45.080000000000005
   159   1      5.8800000000000088      60.759999999999998      43.120000000000012
   160   1      3.9200000000000155      58.800000000000011      47.040000000000006
   161   1      3.9200000000000155      60.759999999999998      49.000000000000014
   162   1      5.8800000000000088      58.800000000000011      49.000000000000014
   163   1      5.8800000000000088      60.759999999999998      47.040000000000006
   164   1      3.9200000000000155      58.800000000000011      50.960000000000001
   165   1      3.9200000000000155      60.759999999999998      52.920000000000009
   166   1      5.8800000000000088      58.800000000000011      52.920000000000009
   167   1      5.8800000000000088      60.759999999999998      50.960000000000001
   168   1      3.9200000000000155      58.800000000000011      54.880000000000003
   169   1      3.9200000000000155      60.759999999999998      56.840000000000003
   170   1      5.8800000000000088      58.800000000000011      56.840000000000003
   171   1      5.8800000000000088      60.759999999999998      54.880000000000003
   172   1      3.9200000000000155      58.800000000000011      58.800000000000011
   173   1      3.9200000000000155      60.759999999999998      60.759999999999998
   174   1      5.8800000000000088      58.800000000000011      60.759999999999998
   175   1      5.8800000000000088      60.759999999999998      58.800000000000011
   176   1      5.8800000000000088      60.759999999999998      62.720000000000006
   177   1      5.8800000000000088      62.720000000000006      41.160000000000004
   178   1      5.8800000000000088      62.720000000000006      45.080000000000005
   179   1      5.8800000000000088      62.720000000000006      49.000000000000014
   180   1      5.8800000000000088      62.720000000000006      52.920000000000009
   181   1      5.8800000000000088      62.720000000000006      56.840000000000003
   182   1      5.8800000000000088      62.720000000000006      60.759999999999998
   183   1      9.8000000000000114      33.320000000000014      35.280000000000015
   184   1      9.8000000000000114      33.320000000000014       39.20000000000001
   185   1      9.8000000000000114      33.320000000000014      43.120000000000012
   186   1      9.8000000000000114      33.320000000000014      47.040000000000006
   187   1      9.8000000000000114      33.320000000000014      50.960000000000001
   188   1      9.8000000000000114      33.320000000000014      54.880000000000003
   189   1      9.8000000000000114      33.320000000000014      58.800000000000011
   190   1      9.8000000000000114      33.320000000000014      62.720000000000006
   191   1      9.8000000000000114      33.320000000000014      66.640000000000015
   192   1      9.8000000000000114      35.280000000000015      33.320000000000014
   193   1      7.8400000000000096      35.280000000000015      35.280000000000015
   194   1      7.8400000000000096      37.240000000000009      37.240000000000009
   195   1      9.8000000000000114      35.280000000000015      37.240000000000009
   196   1      9.8000000000000114      37.240000000000009      35.280000000000015
   197   1      7.8400000000000096      35.280000000000015       39.20000000000001
   198   1      7.8400000000000096      37.240000000000009      41.160000000000004
   199   1      9.8000000000000114      35.280000000000015      41.160000000000004
   200   1      9.8000000000000114      37.240000000000009       39.20000000000001
   201   1      7.8400000000000096      35.280000000000015      43.120000000000012
   202   1      7.8400000000000096      37.240000000000009      45.080000000000005
   203   1      9.8000000000000114      35.280000000000015      45.080000000000005
   204   1      9.8000000000000114      37.240000000000009      43.120000000000012
   205   1      7.8400000000000096      35.280000000000015      47.040000000000006
   206   1      7.8400000000000096      37.240000000000009      49.000000000000014
   207   1      9.8000000000000114      35.280000000000015      49.000000000000014
   208   1      9.8000000000000114      37.240000000000009      47.040000000000006
   209   1      7.8400000000000096      35.280000000000015      50.960000000000001
   210   1      7.8400000000000096      37.240000000000009      52.920000000000009
   211   1      9.8000000000000114      35.280000000000015      52.920000000000009
   212   1      9.8000000000000114      37.240000000000009      50.960000000000001
   213   1      7.8400000000000096      35.280000000000015      54.880000000000003
   214   1      7.8400000000000096      37.240000000000009      56.840000000000003
   215   1      9.8000000000000114      35.280000000000015      56.840000000000003
   216   1      9.8000000000000114      37.240000000000009      54.880000000000003
   217   1      7.8400000000000096      35.280000000000015      58.800000000000011
   218   1      7.8400000000000096      37.240000000000009      60.759999999999998
   219   1      9.8000000000000114      35.280000000000015      60.759999999999998
   220   1      9.8000000000000114      37.240000000000009      58.800000000000011
   221   1      7.8400000000000096      35.280000000000015      62.720000000000006
   222   1      7.8400000000000096      37.240000000000009      64.680000000000007
   223   1      9.8000000000000114      35.280000000000015      64.680000000000007
   224   1      9.8000000000000114      37.240000000000009      62.720000000000006
   225   1      7.8400000000000096      35.280000000000015      66.640000000000015
   226   1      9.8000000000000114      35.280000000000015      68.599999999999994
   227   1      9.8000000000000114      37.240000000000009      66.640000000000015
   228   1      9.8000000000000114       39.20000000000001      33.320000000000014
   229   1      7.8400000000000096       39.20000000000001      35.280000000000015
   230   1      7.8400000000000096      41.160000000000004      37.240000000000009
   231   1      9.8000000000000114       39.20000000000001      37.240000000000009
   232   1      9.8000000000000114      41.160000000000004      35.280000000000015
   233   1      7.8400000000000096       39.20000000000001       39.20000000000001
   234   1      7.8400000000000096      41.160000000000004      41.160000000000004
   235   1      9.8000000000000114       39.20000000000001      41.160000000000004
   236   1      9.8000000000000114      41.160000000000004       39.20000000000001
   237   1      7.8400000000000096       39.20000000000001      43.120000000000012
   238   1      7.8400000000000096      41.160000000000004      45.080000000000005
   239   1      9.8000000000000114       39.20000000000001      45.080000000000005
   240   1      9.8000000000000114      41.160000000000004      43.120000000000012
   241   1      7.8400000000000096       39.20000000000001      47.040000000000006
   242   1      7.8400000000000096      41.160000000000004      49.000000000000014
   243   1      9.8000000000000114       39.20000000000001      49.000000000000014
   244   1      9.8000000000000114      41.160000000000004      47.040000000000006
   245   1      7.8400000000000096       39.20000000000001      50.960000000000001
   246   1      7.8400000000000096      41.160000000000004      52.920000000000009
   247   1      9.8000000000000114       39.20000000000001      52.920000000000009
   248   1      9.8000000000000114      41.160000000000004      50.960000000000001
   249   1      7.8400000000000096       39.20000000000001      54.880000000000003
   250   1      7.8400000000000096      41.160000000000004      56.840000000000003
   251   1      9.8000000000000114       39.20000000000001      56.840000000000003
   252   1      9.8000000000000114      41.160000000000004      54.880000000000003
   253   1      7.8400000000000096       39.20000000000001      58.800000000000011
   254   1      7.8400000000000096      41.160000000000004      60.759999999999998
   255   1      9.8000000000000114       39.20000000000001      60.759999999999998
   256   1      9.8000000000000114      41.160000000000004      58.800000000000011
   257   1      7.8400000000000096       39.20000000000001      62.720000000000006
   258   1      7.8400000000000096      41.160000000000004      64.680000000000007
   259   1      9.8000000000000114       39.20000000000001      64.680000000000007
   260   1      9.8000000000000114      41.160000000000004      62.720000000000006
   261   1      7.8400000000000096       39.20000000000001      66.640000000000015
   262   1      9.8000000000000114       39.20000000000001      68.599999999999994
   263   1      9.8000000000000114      41.160000000000004      66.640000000000015
   264   1      9.8000000000000114      43.120000000000012      33.320000000000014
   265   1      7.8400000000000096      43.120000000000012      35.280000000000015
   266   1      7.8400000000000096      45.080000000000005      37.240000000000009
   267   1      9.8000000000000114      43.120000000000012      37.240000000000009
   268   1      9.8000000000000114      45.080000000000005      35.280000000000015
   269   1      7.8400000000000096      43.120000000000012       39.20000000000001
   270   1      7.8400000000000096      45.080000000000005      41.160000000000004
   271   1      9.8000000000000114      43.120000000000012      41.160000000000004
   272   1      9.8000000000000114      45.080000000000005       39.20000000000001
   273   1      7.8400000000000096      43.120000000000012      43.120000000000012
   274   1      7.8400000000000096      45.080000000000005      45.080000000000005
   275   1      9.8000000000000114      43.120000000000012      45.080000000000005
   276   1      9.8000000000000114      45.080000000000005      43.120000000000012
   277   1      7.8400000000000096      43.120000000000012      47.040000000000006
   278   1      7.8400000000000096      45.080000000000005      49.000000000000014
   279   1      9.8000000000000114      43.120000000000012      49.000000000000014
   280   1      9.8000000000000114      45.080000000000005      47.040000000000006
   281   1      7.8400000000000096      43.120000000000012      50.960000000000001
   282   1      7.8400000000000096      45.080000000000005      52.920000000000009
   283   1      9.8000000000000114      43.120000000000012      52.920000000000009
   284   1      9.8000000000000114      45.080000000000005      50.960000000000001
   285   1      7.8400000000000096      43.120000000000012      54.880000000000003
   286   1      7.8400000000000096      45.080000000000005      56.840000000000003
   287   1      9.8000000000000114      43.120000000000012      56.840000000000003
   288   1      9.8000000000000114      45.080000000000005      54.880000000000003
   289   1      7.8400000000000096      43.120000000000012      58.800000000000011
   290   1      7.8400000000000096      45.080000000000005      60.759999999999998
   291   1      9.8000000000000114      43.120000000000012      60.759999999999998
   292   1      9.8000000000000114      45.080000000000005      58.800000000000011
   293   1      7.8400000000000096      43.120000000000012      62.720000000000006
   294   1      7.8400000000000096      45.080000000000005      64.680000000000007
   295   1      9.8000000000000114      43.120000000000012      64.680000000000007
   296   1      9.8000000000000114      45.080000000000005      62.720000000000006
   297   1      7.8400000000000096      43.120000000000012      66.640000000000015
   298   1      9.8000000000000114      43.120000000000012      68.599999999999994
   299   1      9.8000000000000114      45.080000000000005      66.640000000000015
   300   1      9.8000000000000114      47.040000000000006      33.320000000000014
   301   1      7.8400000000000096      47.040000000000006      35.280000000000015
   302   1      7.8400000000000096      49.000000000000014      37.240000000000009
   303   1      9.8000000000000114      47.040000000000006      37.240000000000009
   304   1      9.8000000000000114      49.000000000000014      35.280000000000015
   305   1      7.8400000000000096      47.040000000000006       39.20000000000001
   306   1      7.8400000000000096      49.000000000000014      41.160000000000004
   307   1      9.8000000000000114      47.040000000000006      41.160000000000004
   308   1      9.8000000000000114      49.000000000000014       39.20000000000001
   309   1      7.8400000000000096      47.040000000000006      43.120000000000012
   310   1      7.8400000000000096      49.000000000000014      45.080000000000005
   311   1      9.8000000000000114      47.040000000000006      45.080000000000005
   312   1      9.8000000000000114      49.000000000000014      43.120000000000012
   313   1      7.8400000000000096      47.040000000000006      47.040000000000006
   314   1      7.8400000000000096      49.000000000000014      49.000000000000014
   315   1      9.8000000000000114      47.040000000000006      49.000000000000014
   316   1      9.8000000000000114      49.000000000000014      47.040000000000006
   317   1      7.8400000000000096      47.040000000000006      50.960000000000001
   318   1      7.8400000000000096      49.000000000000014      52.920000000000009
   319   1      9.8000000000000114      47.040000000000006      52.920000000000009
   320   1      9.8000000000000114      49.000000000000014      50.960000000000001
   321   1      7.8400000000000096      47.040000000000006      54.880000000000003
   322   1      7.8400000000000096      49.000000000000014      56.840000000000003
   323   1      9.8000000000000114      47.040000000000006      56.840000000000003
   324   1      9.8000000000000114      49.000000000000014      54.880000000000003
   325   1      7.8400000000000096      47.040000000000006      58.800000000000011
   326   1      7.8400000000000096      49.000000000000014      60.759999999999998
   327   1      9.8000000000000114      47.040000000000006      60.759999999999998
   328   1      9.8000000000000114      49.000000000000014      58.800000000000011
   329   1      7.8400000000000096      47.040000000000006      62.720000000000006
   330   1      7.8400000000000096      49.000000000000014      64.680000000000007
   331   1      9.8000000000000114      47.040000000000006      64.680000000000007
   332   1      9.8000000000000114      49.000000000000014      62.720000000000006
   333   1      7.8400000000000096      47.040000000000006      66.640000000000015
   334   1      9.8000000000000114      47.040000000000006      68.599999999999994
   335   1      9.8000000000000114      49.000000000000014      66.640000000000015
   336   1      9.8000000000000114      50.960000000000001      33.320000000000014
   337   1      7.8400000000000096      50.960000000000001      35.280000000000015
   338   1      7.8400000000000096      52.920000000000009      37.240000000000009
   339   1      9.8000000000000114      50.960000000000001      37.240000000000009
   340   1      9.8000000000000114      52.920000000000009      35.280000000000015
   341   1      7.8400000000000096      50.960000000000001       39.20000000000001
   342   1      7.8400000000000096      52.920000000000009      41.160000000000004
   343   1      9.8000000000000114      50.960000000000001      41.160000000000004
   344   1      9.8000000000000114      52.920000000000009       39.20000000000001
   345   1      7.8400000000000096      50.960000000000001      43.120000000000012
   346   1      7.8400000000000096      52.920000000000009      45.080000000000005
   347   1      9.8000000000000114      50.960000000000001      45.080000000000005
   348   1      9.8000000000000114      52.920000000000009      43.120000000000012
   349   1      7.8400000000000096      50.960000000000001      47.040000000000006
   350   1      7.8400000000000096      52.920000000000009      49.000000000000014
   351   1      9.8000000000000114      50.960000000000001      49.000000000000014
   352   1      9.8000000000000114      52.920000000000009      47.040000000000006
   353   1      7.8400000000000096      50.960000000000001      50.960000000000001
   354   1      7.8400000000000096      52.920000000000009      52.920000000000009
   355   1      9.8000000000000114      50.960000000000001      52.920000000000009
   356   1      9.8000000000000114      52.920000000000009      50.960000000000001
   357   1      7.8400000000000096      50.960000000000001      54.880000000000003
   358   1      7.8400000000000096      52.920000000000009      56.840000000000003