model_files/PtCo/PtCo_30000/PtCo_430/PtCo_430_fcc_29909_temp.data (written by ASE) 

29909 	 atoms 
2  atom types
0.0                     102  xlo xhi
0.0                     102  ylo yhi
0.0                     102  zlo zhi


Atoms 

     1   1      1.8249999999999957      49.274999999999999      51.099999999999987
     2   1      1.8249999999999957      51.099999999999987      49.274999999999999
     3   1      101.99999999999999      51.099999999999987      51.099999999999987
     4   1      1.8249999999999957      51.099999999999987       52.92499999999999
     5   1      1.8249999999999957       52.92499999999999      51.099999999999987
     6   1      3.6499999999999915      45.624999999999993      45.624999999999993
     7   1      5.4749999999999943       43.79999999999999      45.624999999999993
     8   1      5.4749999999999943      45.624999999999993       43.79999999999999
     9   1      3.6499999999999915      45.624999999999993      49.274999999999999
    10   1      5.4749999999999943       43.79999999999999      49.274999999999999
    11   1      5.4749999999999943      45.624999999999993      47.449999999999996
    12   1      3.6499999999999915      45.624999999999993       52.92499999999999
    13   1      5.4749999999999943       43.79999999999999       52.92499999999999
    14   1      5.4749999999999943      45.624999999999993      51.099999999999987
    15   1      3.6499999999999915      45.624999999999993      56.574999999999989
    16   1      5.4749999999999943       43.79999999999999      56.574999999999989
    17   1      5.4749999999999943      45.624999999999993      54.749999999999986
    18   1      5.4749999999999943      45.624999999999993      58.399999999999984
    19   1      3.6499999999999915      49.274999999999999      45.624999999999993
    20   1      5.4749999999999943      47.449999999999996      45.624999999999993
    21   1      5.4749999999999943      49.274999999999999       43.79999999999999
    22   1      3.6499999999999915      47.449999999999996      47.449999999999996
    23   1      3.6499999999999915      49.274999999999999      49.274999999999999
    24   1      5.4749999999999943      47.449999999999996      49.274999999999999
    25   1      5.4749999999999943      49.274999999999999      47.449999999999996
    26   1      3.6499999999999915      47.449999999999996      51.099999999999987
    27   1      3.6499999999999915      49.274999999999999       52.92499999999999
    28   1      5.4749999999999943      47.449999999999996       52.92499999999999
    29   1      5.4749999999999943      49.274999999999999      51.099999999999987
    30   1      3.6499999999999915      47.449999999999996      54.749999999999986
    31   1      3.6499999999999915      49.274999999999999      56.574999999999989
    32   1      5.4749999999999943      47.449999999999996      56.574999999999989
    33   1      5.4749999999999943      49.274999999999999      54.749999999999986
    34   1      5.4749999999999943      49.274999999999999      58.399999999999984
    35   1      3.6499999999999915       52.92499999999999      45.624999999999993
    36   1      5.4749999999999943      51.099999999999987      45.624999999999993
    37   1      5.4749999999999943       52.92499999999999       43.79999999999999
    38   1      3.6499999999999915      51.099999999999987      47.449999999999996
    39   1      3.6499999999999915       52.92499999999999      49.274999999999999
    40   1      5.4749999999999943      51.099999999999987      49.274999999999999
    41   1      5.4749999999999943       52.92499999999999      47.449999999999996
    42   1      3.6499999999999915      51.099999999999987      51.099999999999987
    43   1      3.6499999999999915       52.92499999999999       52.92499999999999
    44   1      5.4749999999999943      51.099999999999987       52.92499999999999
    45   1      5.4749999999999943       52.92499999999999      51.099999999999987
    46   1      3.6499999999999915      51.099999999999987      54.749999999999986
    47   1      3.6499999999999915       52.92499999999999      56.574999999999989
    48   1      5.4749999999999943      51.099999999999987      56.574999999999989
    49   1      5.4749999999999943       52.92499999999999      54.749999999999986
    50   1      5.4749999999999943       52.92499999999999      58.399999999999984
    51   1      3.6499999999999915      56.574999999999989      45.624999999999993
    52   1      5.4749999999999943      54.749999999999986      45.624999999999993
    53   1      5.4749999999999943      56.574999999999989       43.79999999999999
    54   1      3.6499999999999915      54.749999999999986      47.449999999999996
    55   1      3.6499999999999915      56.574999999999989      49.274999999999999
    56   1      5.4749999999999943      54.749999999999986      49.274999999999999
    57   1      5.4749999999999943      56.574999999999989      47.449999999999996
    58   1      3.6499999999999915      54.749999999999986      51.099999999999987
    59   1      3.6499999999999915      56.574999999999989       52.92499999999999
    60   1      5.4749999999999943      54.749999999999986       52.92499999999999
    61   1      5.4749999999999943      56.574999999999989      51.099999999999987
    62   1      3.6499999999999915      54.749999999999986      54.749999999999986
    63   1      3.6499999999999915      56.574999999999989      56.574999999999989
    64   1      5.4749999999999943      54.749999999999986      56.574999999999989
    65   1      5.4749999999999943      56.574999999999989      54.749999999999986
    66   1      5.4749999999999943      56.574999999999989      58.399999999999984
    67   1      5.4749999999999943      58.399999999999984      45.624999999999993
    68   1      5.4749999999999943      58.399999999999984      49.274999999999999
    69   1      5.4749999999999943      58.399999999999984       52.92499999999999
    70   1      5.4749999999999943      58.399999999999984      56.574999999999989
    71   1      9.1249999999999929      38.324999999999996      40.149999999999991
    72   1      9.1249999999999929      38.324999999999996       43.79999999999999
    73   1      9.1249999999999929      38.324999999999996      47.449999999999996
    74   1      9.1249999999999929      38.324999999999996      51.099999999999987
    75   1      9.1249999999999929      38.324999999999996      54.749999999999986
    76   1      9.1249999999999929      38.324999999999996      58.399999999999984
    77   1      9.1249999999999929      38.324999999999996      62.049999999999997
    78   1      9.1249999999999929      40.149999999999991      38.324999999999996
    79   1      7.2999999999999972      41.974999999999994      41.974999999999994
    80   1      9.1249999999999929      40.149999999999991      41.974999999999994
    81   1      9.1249999999999929      41.974999999999994      40.149999999999991
    82   1      7.2999999999999972      41.974999999999994      45.624999999999993
    83   1      9.1249999999999929      40.149999999999991      45.624999999999993
    84   1      9.1249999999999929      41.974999999999994       43.79999999999999
    85   1      7.2999999999999972      41.974999999999994      49.274999999999999
    86   1      9.1249999999999929      40.149999999999991      49.274999999999999
    87   1      9.1249999999999929      41.974999999999994      47.449999999999996
    88   1      7.2999999999999972      41.974999999999994       52.92499999999999
    89   1      9.1249999999999929      40.149999999999991       52.92499999999999
    90   1      9.1249999999999929      41.974999999999994      51.099999999999987
    91   1      7.2999999999999972      41.974999999999994      56.574999999999989
    92   1      9.1249999999999929      40.149999999999991      56.574999999999989
    93   1      9.1249999999999929      41.974999999999994      54.749999999999986
    94   1      7.2999999999999972      41.974999999999994      60.224999999999987
    95   1      9.1249999999999929      40.149999999999991      60.224999999999987
    96   1      9.1249999999999929      41.974999999999994      58.399999999999984
    97   1      9.1249999999999929      40.149999999999991                  63.875
    98   1      9.1249999999999929      41.974999999999994      62.049999999999997
    99   1      9.1249999999999929       43.79999999999999      38.324999999999996
   100   1      7.2999999999999972      45.624999999999993      41.974999999999994
   101   1      9.1249999999999929       43.79999999999999      41.974999999999994
   102   1      9.1249999999999929      45.624999999999993      40.149999999999991
   103   1      7.2999999999999972       43.79999999999999       43.79999999999999
   104   1      7.2999999999999972      45.624999999999993      45.624999999999993
   105   1      9.1249999999999929       43.79999999999999      45.624999999999993
   106   1      9.1249999999999929      45.624999999999993       43.79999999999999
   107   1      7.2999999999999972       43.79999999999999      47.449999999999996
   108   1      7.2999999999999972      45.624999999999993      49.274999999999999
   109   1      9.1249999999999929       43.79999999999999      49.274999999999999
   110   1      9.1249999999999929      45.624999999999993      47.449999999999996
   111   1      7.2999999999999972       43.79999999999999      51.099999999999987
   112   1      7.2999999999999972      45.624999999999993       52.92499999999999
   113   1      9.1249999999999929       43.79999999999999       52.92499999999999
   114   1      9.1249999999999929      45.624999999999993      51.099999999999987
   115   1      7.2999999999999972       43.79999999999999      54.749999999999986
   116   1      7.2999999999999972      45.624999999999993      56.574999999999989
   117   1      9.1249999999999929       43.79999999999999      56.574999999999989
   118   1      9.1249999999999929      45.624999999999993      54.749999999999986
   119   1      7.2999999999999972       43.79999999999999      58.399999999999984
   120   1      7.2999999999999972      45.624999999999993      60.224999999999987
   121   1      9.1249999999999929       43.79999999999999      60.224999999999987
   122   1      9.1249999999999929      45.624999999999993      58.399999999999984
   123   1      9.1249999999999929       43.79999999999999                  63.875
   124   1      9.1249999999999929      45.624999999999993      62.049999999999997
   125   1      9.1249999999999929      47.449999999999996      38.324999999999996
   126   1      7.2999999999999972      49.274999999999999      41.974999999999994
   127   1      9.1249999999999929      47.449999999999996      41.974999999999994
   128   1      9.1249999999999929      49.274999999999999      40.149999999999991
   129   1      7.2999999999999972      47.449999999999996       43.79999999999999
   130   1      7.2999999999999972      49.274999999999999      45.624999999999993
   131   1      9.1249999999999929      47.449999999999996      45.624999999999993
   132   1      9.1249999999999929      49.274999999999999       43.79999999999999
   133   1      7.2999999999999972      47.449999999999996      47.449999999999996
   134   1      7.2999999999999972      49.274999999999999      49.274999999999999
   135   1      9.1249999999999929      47.449999999999996      49.274999999999999
   136   1      9.1249999999999929      49.274999999999999      47.449999999999996
   137   1      7.2999999999999972      47.449999999999996      51.099999999999987
   138   1      7.2999999999999972      49.274999999999999       52.92499999999999
   139   1      9.1249999999999929      47.449999999999996       52.92499999999999
   140   1      9.1249999999999929      49.274999999999999      51.099999999999987
   141   1      7.2999999999999972      47.449999999999996      54.749999999999986
   142   1      7.2999999999999972      49.274999999999999      56.574999999999989
   143   1      9.1249999999999929      47.449999999999996      56.574999999999989
   144   1      9.1249999999999929      49.274999999999999      54.749999999999986
   145   1      7.2999999999999972      47.449999999999996      58.399999999999984
   146   1      7.2999999999999972      49.274999999999999      60.224999999999987
   147   1      9.1249999999999929      47.449999999999996      60.224999999999987
   148   1      9.1249999999999929      49.274999999999999      58.399999999999984
   149   1      9.1249999999999929      47.449999999999996                  63.875
   150   1      9.1249999999999929      49.274999999999999      62.049999999999997
   151   1      9.1249999999999929      51.099999999999987      38.324999999999996
   152   1      7.2999999999999972       52.92499999999999      41.974999999999994
   153   1      9.1249999999999929      51.099999999999987      41.974999999999994
   154   1      9.1249999999999929       52.92499999999999      40.149999999999991
   155   1      7.2999999999999972      51.099999999999987       43.79999999999999
   156   1      7.2999999999999972       52.92499999999999      45.624999999999993
   157   1      9.1249999999999929      51.099999999999987      45.624999999999993
   158   1      9.1249999999999929       52.92499999999999       43.79999999999999
   159   1      7.2999999999999972      51.099999999999987      47.449999999999996
   160   1      7.2999999999999972       52.92499999999999      49.274999999999999
   161   1      9.1249999999999929      51.099999999999987      49.274999999999999
   162   1      9.1249999999999929       52.92499999999999      47.449999999999996
   163   1      7.2999999999999972      51.099999999999987      51.099999999999987
   164   1      7.2999999999999972       52.92499999999999       52.92499999999999
   165   1      9.1249999999999929      51.099999999999987       52.92499999999999
   166   1      9.1249999999999929       52.92499999999999      51.099999999999987
   167   1      7.2999999999999972      51.099999999999987      54.749999999999986
   168   1      7.2999999999999972       52.92499999999999      56.574999999999989
   169   1      9.1249999999999929      51.099999999999987      56.574999999999989
   170   1      9.1249999999999929       52.92499999999999      54.749999999999986
   171   1      7.2999999999999972      51.099999999999987      58.399999999999984
   172   1      7.2999999999999972       52.92499999999999      60.224999999999987
   173   1      9.1249999999999929      51.099999999999987      60.224999999999987
   174   1      9.1249999999999929       52.92499999999999      58.399999999999984
   175   1      9.1249999999999929      51.099999999999987                  63.875
   176   1      9.1249999999999929       52.92499999999999      62.049999999999997
   177   1      9.1249999999999929      54.749999999999986      38.324999999999996
   178   1      7.2999999999999972      56.574999999999989      41.974999999999994
   179   1      9.1249999999999929      54.749999999999986      41.974999999999994
   180   1      9.1249999999999929      56.574999999999989      40.149999999999991
   181   1      7.2999999999999972      54.749999999999986       43.79999999999999
   182   1      7.2999999999999972      56.574999999999989      45.624999999999993
   183   1      9.1249999999999929      54.749999999999986      45.624999999999993
   184   1      9.1249999999999929      56.574999999999989       43.79999999999999
   185   1      7.2999999999999972      54.749999999999986      47.449999999999996
   186   1      7.2999999999999972      56.574999999999989      49.274999999999999
   187   1      9.1249999999999929      54.749999999999986      49.274999999999999
   188   1      9.1249999999999929      56.574999999999989      47.449999999999996
   189   1      7.2999999999999972      54.749999999999986      51.099999999999987
   190   1      7.2999999999999972      56.574999999999989       52.92499999999999
   191   1      9.1249999999999929      54.749999999999986       52.92499999999999
   192   1      9.1249999999999929      56.574999999999989      51.099999999999987
   193   1      7.2999999999999972      54.749999999999986      54.749999999999986
   194   1      7.2999999999999972      56.574999999999989      56.574999999999989
   195   1      9.1249999999999929      54.749999999999986      56.574999999999989
   196   1      9.1249999999999929      56.574999999999989      54.749999999999986
   197   1      7.2999999999999972      54.749999999999986      58.399999999999984
   198   1      7.2999999999999972      56.574999999999989      60.224999999999987
   199   1      9.1249999999999929      54.749999999999986      60.224999999999987
   200   1      9.1249999999999929      56.574999999999989      58.399999999999984
   201   1      9.1249999999999929      54.749999999999986                  63.875
   202   1      9.1249999999999929      56.574999999999989      62.049999999999997
   203   1      9.1249999999999929      58.399999999999984      38.324999999999996
   204   1      7.2999999999999972      60.224999999999987      41.974999999999994
   205   1      9.1249999999999929      58.399999999999984      41.974999999999994
   206   1      9.1249999999999929      60.224999999999987      40.149999999999991
   207   1      7.2999999999999972      58.399999999999984       43.79999999999999
   208   1      7.2999999999999972      60.224999999999987      45.624999999999993
   209   1      9.1249999999999929      58.399999999999984      45.624999999999993
   210   1      9.1249999999999929      60.224999999999987       43.79999999999999
   211   1      7.2999999999999972      58.399999999999984      47.449999999999996
   212   1      7.2999999999999972      60.224999999999987      49.274999999999999
   213   1      9.1249999999999929      58.399999999999984      49.274999999999999
   214   1      9.1249999999999929      60.224999999999987      47.449999999999996
   215   1      7.2999999999999972      58.399999999999984      51.099999999999987
   216   1      7.2999999999999972      60.224999999999987       52.92499999999999
   217   1      9.1249999999999929      58.399999999999984       52.92499999999999
   218   1      9.1249999999999929      60.224999999999987      51.099999999999987
   219   1      7.2999999999999972      58.399999999999984      54.749999999999986
   220   1      7.2999999999999972      60.224999999999987      56.574999999999989
   221   1      9.1249999999999929      58.399999999999984      56.574999999999989
   222   1      9.1249999999999929      60.224999999999987      54.749999999999986
   223   1      7.2999999999999972      58.399999999999984      58.399999999999984
   224   1      7.2999999999999972      60.224999999999987      60.224999999999987
   225   1      9.1249999999999929      58.399999999999984      60.224999999999987
   226   1      9.1249999999999929      60.224999999999987      58.399999999999984
   227   1      9.1249999999999929      58.399999999999984                  63.875
   228   1      9.1249999999999929      60.224999999999987      62.049999999999997
   229   1      9.1249999999999929      62.049999999999997      38.324999999999996
   230   1      9.1249999999999929      62.049999999999997      41.974999999999994
   231   1      9.1249999999999929                  63.875      40.149999999999991
   232   1      9.1249999999999929      62.049999999999997      45.624999999999993
   233   1      9.1249999999999929                  63.875       43.79999999999999
   234   1      9.1249999999999929      62.049999999999997      49.274999999999999
   235   1      9.1249999999999929                  63.875      47.449999999999996
   236   1      9.1249999999999929      62.049999999999997       52.92499999999999
   237   1      9.1249999999999929                  63.875      51.099999999999987
   238   1      9.1249999999999929      62.049999999999997      56.574999999999989
   239   1      9.1249999999999929                  63.875      54.749999999999986
   240   1      9.1249999999999929      62.049999999999997      60.224999999999987
   241   1      9.1249999999999929                  63.875      58.399999999999984
   242   1      9.1249999999999929      62.049999999999997                  63.875
   243   1      9.1249999999999929                  63.875      62.049999999999997
   244   1      12.774999999999991      34.674999999999997      36.499999999999993
   245   1      12.774999999999991      34.674999999999997      40.149999999999991
   246   1      12.774999999999991      34.674999999999997       43.79999999999999
   247   1      12.774999999999991      34.674999999999997      47.449999999999996
   248   1      12.774999999999991      34.674999999999997      51.099999999999987
   249   1      12.774999999999991      34.674999999999997      54.749999999999986
   250   1      12.774999999999991      34.674999999999997      58.399999999999984
   251   1      12.774999999999991      34.674999999999997      62.049999999999997
   252   1      12.774999999999991      34.674999999999997      65.699999999999989
   253   1      12.774999999999991      36.499999999999993      34.674999999999997
   254   1      10.949999999999996      36.499999999999993      36.499999999999993
   255   1      10.949999999999996      38.324999999999996      38.324999999999996
   256   1      12.774999999999991      36.499999999999993      38.324999999999996
   257   1      12.774999999999991      38.324999999999996      36.499999999999993
   258   1      10.949999999999996      36.499999999999993      40.149999999999991
   259   1      10.949999999999996      38.324999999999996      41.974999999999994
   260   1      12.774999999999991      36.499999999999993      41.974999999999994
   261   1      12.774999999999991      38.324999999999996      40.149999999999991
   262   1      10.949999999999996      36.499999999999993       43.79999999999999
   263   1      10.949999999999996      38.324999999999996      45.624999999999993
   264   1      12.774999999999991      36.499999999999993      45.624999999999993
   265   1      12.774999999999991      38.324999999999996       43.79999999999999
   266   1      10.949999999999996      36.499999999999993      47.449999999999996
   267   1      10.949999999999996      38.324999999999996      49.274999999999999
   268   1      12.774999999999991      36.499999999999993      49.274999999999999
   269   1      12.774999999999991      38.324999999999996      47.449999999999996
   270   1      10.949999999999996      36.499999999999993      51.099999999999987
   271   1      10.949999999999996      38.324999999999996       52.92499999999999
   272   1      12.774999999999991      36.499999999999993       52.92499999999999
   273   1      12.774999999999991      38.324999999999996      51.099999999999987
   274   1      10.949999999999996      36.499999999999993      54.749999999999986
   275   1      10.949999999999996      38.324999999999996      56.574999999999989
   276   1      12.774999999999991      36.499999999999993      56.574999999999989
   277   1      12.774999999999991      38.324999999999996      54.749999999999986
   278   1      10.949999999999996      36.499999999999993      58.399999999999984
   279   1      10.949999999999996      38.324999999999996      60.224999999999987
   280   1      12.774999999999991      36.499999999999993      60.224999999999987
   281   1      12.774999999999991      38.324999999999996      58.399999999999984
   282   1      10.949999999999996      36.499999999999993      62.049999999999997
   283   1      10.949999999999996      38.324999999999996                  63.875
   284   1      12.774999999999991      36.499999999999993                  63.875
   285   1      12.774999999999991      38.324999999999996      62.049999999999997
   286   1      10.949999999999996      36.499999999999993      65.699999999999989
   287   1      12.774999999999991      36.499999999999993      67.524999999999991
   288   1      12.774999999999991      38.324999999999996      65.699999999999989
   289   1      12.774999999999991      40.149999999999991      34.674999999999997
   290   1      10.949999999999996      40.149999999999991      36.499999999999993
   291   1      10.949999999999996      41.974999999999994      38.324999999999996
   292   1      12.774999999999991      40.149999999999991      38.324999999999996
   293   1      12.774999999999991      41.974999999999994      36.499999999999993
   294   1      10.949999999999996      40.149999999999991      40.149999999999991
   295   1      10.949999999999996      41.974999999999994      41.974999999999994
   296   1      12.774999999999991      40.149999999999991      41.974999999999994
   297   1      12.774999999999991      41.974999999999994      40.149999999999991
   298   1      10.949999999999996      40.149999999999991       43.79999999999999
   299   1      10.949999999999996      41.974999999999994      45.624999999999993
   300   1      12.774999999999991      40.149999999999991      45.624999999999993
   301   1      12.774999999999991      41.974999999999994       43.79999999999999
   302   1      10.949999999999996      40.149999999999991      47.449999999999996
   303   1      10.949999999999996      41.974999999999994      49.274999999999999
   304   1      12.774999999999991      40.149999999999991      49.274999999999999
   305   1      12.774999999999991      41.974999999999994      47.449999999999996
   306   1      10.949999999999996      40.149999999999991      51.099999999999987
   307   1      10.949999999999996      41.974999999999994       52.92499999999999
   308   1      12.774999999999991      40.149999999999991       52.92499999999999
   309   1      12.774999999999991      41.974999999999994      51.099999999999987
   310   1      10.949999999999996      40.149999999999991      54.749999999999986
   311   1      10.949999999999996      41.974999999999994      56.574999999999989
   312   1      12.774999999999991      40.149999999999991      56.574999999999989
   313   1      12.774999999999991      41.974999999999994      54.749999999999986
   314   1      10.949999999999996      40.149999999999991      58.399999999999984
   315   1      10.949999999999996      41.974999999999994      60.224999999999987
   316   1      12.774999999999991      40.149999999999991      60.224999999999987
   317   1      12.774999999999991      41.974999999999994      58.399999999999984
   318   1      10.949999999999996      40.149999999999991      62.049999999999997
   319   1      10.949999999999996      41.974999999999994                  63.875
   320   1      12.774999999999991      40.149999999999991                  63.875
   321   1      12.774999999999991      41.974999999999994      62.049999999999997
   322   1      10.949999999999996      40.149999999999991      65.699999999999989
   323   1      12.774999999999991      40.149999999999991      67.524999999999991
   324   1      12.774999999999991      41.974999999999994      65.699999999999989
   325   1      12.774999999999991       43.79999999999999      34.674999999999997
   326   1      10.949999999999996       43.79999999999999      36.499999999999993
   327   1      10.949999999999996      45.624999999999993      38.324999999999996
   328   1      12.774999999999991       43.79999999999999      38.324999999999996
   329   1      12.774999999999991      45.624999999999993      36.499999999999993
   330   1      10.949999999999996       43.79999999999999      40.149999999999991
   331   1      10.949999999999996      45.624999999999993      41.974999999999994
   332   1      12.774999999999991       43.79999999999999      41.974999999999994
   333   1      12.774999999999991      45.624999999999993      40.149999999999991
   334   1      10.949999999999996       43.79999999999999       43.79999999999999
   335   1      10.949999999999996      45.624999999999993      45.624999999999993
   336   1      12.774999999999991       43.79999999999999      45.624999999999993
   337   1      12.774999999999991      45.624999999999993       43.79999999999999
   338   1      10.949999999999996       43.79999999999999      47.449999999999996
   339   1      10.949999999999996      45.624999999999993      49.274999999999999
   340   1      12.774999999999991       43.79999999999999      49.274999999999999
   341   1      12.774999999999991      45.624999999999993      47.449999999999996
   342   1      10.949999999999996       43.79999999999999      51.099999999999987
   343   1      10.949999999999996      45.624999999999993       52.92499999999999
   344   1      12.774999999999991       43.79999999999999       52.92499999999999
   345   1      12.774999999999991      45.624999999999993      51.099999999999987
   346   1      10.949999999999996       43.79999999999999      54.749999999999986
   347   1      10.949999999999996      45.624999999999993      56.574999999999989
   348   1      12.774999999999991       43.79999999999999      56.574999999999989
   349   1      12.774999999999991      45.624999999999993      54.749999999999986
   350   1      10.949999999999996       43.79999999999999      58.399999999999984
   351   1      10.949999999999996      45.624999999999993      60.224999999999987
   352   1      12.774999999999991       43.79999999999999      60.224999999999987
   353   1      12.774999999999991      45.624999999999993      58.399999999999984
   354   1      10.949999999999996       43.79999999999999      62.049999999999997
   355   1      10.949999999999996      45.624999999999993                  63.875
   356   1      12.774999999999991       43.79999999999999                  63.875
   357   1      12.774999999999991      45.624999999999993      62.049999999999997
   358   1      10.949999999999996       43.79999999999999      65.699999999999989