model_files/Fe/Fe_30000/Fe_552/data.Fe_552_fcc_30353 (written by ASE) 

30353 	 atoms 
1  atom types
0.0                     114  xlo xhi
0.0                     114  ylo yhi
0.0                     114  zlo zhi


Atoms 

     1   1      1.4349999999999952      55.964999999999982      55.964999999999982
     2   1      1.4349999999999952      55.964999999999982      58.834999999999994
     3   1      1.4349999999999952      58.834999999999994      55.964999999999982
     4   1      113.99999999999999      57.399999999999991      57.399999999999991
     5   1      1.4349999999999952      58.834999999999994      58.834999999999994
     6   1      4.3049999999999926      53.094999999999992      53.094999999999992
     7   1      4.3049999999999926      53.094999999999992      55.964999999999982
     8   1      4.3049999999999926      53.094999999999992      58.834999999999994
     9   1      4.3049999999999926      53.094999999999992      61.704999999999977
    10   1      4.3049999999999926      55.964999999999982      53.094999999999992
    11   1      2.8699999999999974       54.52999999999998       54.52999999999998
    12   1      4.3049999999999926      55.964999999999982      55.964999999999982
    13   1      2.8699999999999974       54.52999999999998      57.399999999999991
    14   1      4.3049999999999926      55.964999999999982      58.834999999999994
    15   1      2.8699999999999974       54.52999999999998      60.269999999999982
    16   1      4.3049999999999926      55.964999999999982      61.704999999999977
    17   1      4.3049999999999926      58.834999999999994      53.094999999999992
    18   1      2.8699999999999974      57.399999999999991       54.52999999999998
    19   1      4.3049999999999926      58.834999999999994      55.964999999999982
    20   1      2.8699999999999974      57.399999999999991      57.399999999999991
    21   1      4.3049999999999926      58.834999999999994      58.834999999999994
    22   1      2.8699999999999974      57.399999999999991      60.269999999999982
    23   1      4.3049999999999926      58.834999999999994      61.704999999999977
    24   1      4.3049999999999926      61.704999999999977      53.094999999999992
    25   1      2.8699999999999974      60.269999999999982       54.52999999999998
    26   1      4.3049999999999926      61.704999999999977      55.964999999999982
    27   1      2.8699999999999974      60.269999999999982      57.399999999999991
    28   1      4.3049999999999926      61.704999999999977      58.834999999999994
    29   1      2.8699999999999974      60.269999999999982      60.269999999999982
    30   1      4.3049999999999926      61.704999999999977      61.704999999999977
    31   1      7.1749999999999972      50.224999999999987      53.094999999999992
    32   1      7.1749999999999972      50.224999999999987      55.964999999999982
    33   1      7.1749999999999972      50.224999999999987      58.834999999999994
    34   1      7.1749999999999972      50.224999999999987      61.704999999999977
    35   1      7.1749999999999972      53.094999999999992      50.224999999999987
    36   1      5.7399999999999949      51.659999999999982      51.659999999999982
    37   1      7.1749999999999972      53.094999999999992      53.094999999999992
    38   1      5.7399999999999949      51.659999999999982       54.52999999999998
    39   1      7.1749999999999972      53.094999999999992      55.964999999999982
    40   1      5.7399999999999949      51.659999999999982      57.399999999999991
    41   1      7.1749999999999972      53.094999999999992      58.834999999999994
    42   1      5.7399999999999949      51.659999999999982      60.269999999999982
    43   1      7.1749999999999972      53.094999999999992      61.704999999999977
    44   1      5.7399999999999949      51.659999999999982      63.139999999999979
    45   1      7.1749999999999972      53.094999999999992      64.574999999999989
    46   1      7.1749999999999972      55.964999999999982      50.224999999999987
    47   1      5.7399999999999949       54.52999999999998      51.659999999999982
    48   1      7.1749999999999972      55.964999999999982      53.094999999999992
    49   1      5.7399999999999949       54.52999999999998       54.52999999999998
    50   1      7.1749999999999972      55.964999999999982      55.964999999999982
    51   1      5.7399999999999949       54.52999999999998      57.399999999999991
    52   1      7.1749999999999972      55.964999999999982      58.834999999999994
    53   1      5.7399999999999949       54.52999999999998      60.269999999999982
    54   1      7.1749999999999972      55.964999999999982      61.704999999999977
    55   1      5.7399999999999949       54.52999999999998      63.139999999999979
    56   1      7.1749999999999972      55.964999999999982      64.574999999999989
    57   1      7.1749999999999972      58.834999999999994      50.224999999999987
    58   1      5.7399999999999949      57.399999999999991      51.659999999999982
    59   1      7.1749999999999972      58.834999999999994      53.094999999999992
    60   1      5.7399999999999949      57.399999999999991       54.52999999999998
    61   1      7.1749999999999972      58.834999999999994      55.964999999999982
    62   1      5.7399999999999949      57.399999999999991      57.399999999999991
    63   1      7.1749999999999972      58.834999999999994      58.834999999999994
    64   1      5.7399999999999949      57.399999999999991      60.269999999999982
    65   1      7.1749999999999972      58.834999999999994      61.704999999999977
    66   1      5.7399999999999949      57.399999999999991      63.139999999999979
    67   1      7.1749999999999972      58.834999999999994      64.574999999999989
    68   1      7.1749999999999972      61.704999999999977      50.224999999999987
    69   1      5.7399999999999949      60.269999999999982      51.659999999999982
    70   1      7.1749999999999972      61.704999999999977      53.094999999999992
    71   1      5.7399999999999949      60.269999999999982       54.52999999999998
    72   1      7.1749999999999972      61.704999999999977      55.964999999999982
    73   1      5.7399999999999949      60.269999999999982      57.399999999999991
    74   1      7.1749999999999972      61.704999999999977      58.834999999999994
    75   1      5.7399999999999949      60.269999999999982      60.269999999999982
    76   1      7.1749999999999972      61.704999999999977      61.704999999999977
    77   1      5.7399999999999949      60.269999999999982      63.139999999999979
    78   1      7.1749999999999972      61.704999999999977      64.574999999999989
    79   1      5.7399999999999949      63.139999999999979      51.659999999999982
    80   1      7.1749999999999972      64.574999999999989      53.094999999999992
    81   1      5.7399999999999949      63.139999999999979       54.52999999999998
    82   1      7.1749999999999972      64.574999999999989      55.964999999999982
    83   1      5.7399999999999949      63.139999999999979      57.399999999999991
    84   1      7.1749999999999972      64.574999999999989      58.834999999999994
    85   1      5.7399999999999949      63.139999999999979      60.269999999999982
    86   1      7.1749999999999972      64.574999999999989      61.704999999999977
    87   1      5.7399999999999949      63.139999999999979      63.139999999999979
    88   1      10.044999999999993       47.35499999999999      53.094999999999992
    89   1      10.044999999999993       47.35499999999999      55.964999999999982
    90   1      10.044999999999993       47.35499999999999      58.834999999999994
    91   1      10.044999999999993       47.35499999999999      61.704999999999977
    92   1      10.044999999999993      50.224999999999987      50.224999999999987
    93   1      8.6099999999999905      48.789999999999992      51.659999999999982
    94   1      10.044999999999993      50.224999999999987      53.094999999999992
    95   1      8.6099999999999905      48.789999999999992       54.52999999999998
    96   1      10.044999999999993      50.224999999999987      55.964999999999982
    97   1      8.6099999999999905      48.789999999999992      57.399999999999991
    98   1      10.044999999999993      50.224999999999987      58.834999999999994
    99   1      8.6099999999999905      48.789999999999992      60.269999999999982
   100   1      10.044999999999993      50.224999999999987      61.704999999999977
   101   1      8.6099999999999905      48.789999999999992      63.139999999999979
   102   1      10.044999999999993      50.224999999999987      64.574999999999989
   103   1      10.044999999999993      53.094999999999992       47.35499999999999
   104   1      8.6099999999999905      51.659999999999982      48.789999999999992
   105   1      10.044999999999993      53.094999999999992      50.224999999999987
   106   1      8.6099999999999905      51.659999999999982      51.659999999999982
   107   1      10.044999999999993      53.094999999999992      53.094999999999992
   108   1      8.6099999999999905      51.659999999999982       54.52999999999998
   109   1      10.044999999999993      53.094999999999992      55.964999999999982
   110   1      8.6099999999999905      51.659999999999982      57.399999999999991
   111   1      10.044999999999993      53.094999999999992      58.834999999999994
   112   1      8.6099999999999905      51.659999999999982      60.269999999999982
   113   1      10.044999999999993      53.094999999999992      61.704999999999977
   114   1      8.6099999999999905      51.659999999999982      63.139999999999979
   115   1      10.044999999999993      53.094999999999992      64.574999999999989
   116   1      8.6099999999999905      51.659999999999982      66.009999999999991
   117   1      10.044999999999993      53.094999999999992      67.444999999999993
   118   1      10.044999999999993      55.964999999999982       47.35499999999999
   119   1      8.6099999999999905       54.52999999999998      48.789999999999992
   120   1      10.044999999999993      55.964999999999982      50.224999999999987
   121   1      8.6099999999999905       54.52999999999998      51.659999999999982
   122   1      10.044999999999993      55.964999999999982      53.094999999999992
   123   1      8.6099999999999905       54.52999999999998       54.52999999999998
   124   1      10.044999999999993      55.964999999999982      55.964999999999982
   125   1      8.6099999999999905       54.52999999999998      57.399999999999991
   126   1      10.044999999999993      55.964999999999982      58.834999999999994
   127   1      8.6099999999999905       54.52999999999998      60.269999999999982
   128   1      10.044999999999993      55.964999999999982      61.704999999999977
   129   1      8.6099999999999905       54.52999999999998      63.139999999999979
   130   1      10.044999999999993      55.964999999999982      64.574999999999989
   131   1      8.6099999999999905       54.52999999999998      66.009999999999991
   132   1      10.044999999999993      55.964999999999982      67.444999999999993
   133   1      10.044999999999993      58.834999999999994       47.35499999999999
   134   1      8.6099999999999905      57.399999999999991      48.789999999999992
   135   1      10.044999999999993      58.834999999999994      50.224999999999987
   136   1      8.6099999999999905      57.399999999999991      51.659999999999982
   137   1      10.044999999999993      58.834999999999994      53.094999999999992
   138   1      8.6099999999999905      57.399999999999991       54.52999999999998
   139   1      10.044999999999993      58.834999999999994      55.964999999999982
   140   1      8.6099999999999905      57.399999999999991      57.399999999999991
   141   1      10.044999999999993      58.834999999999994      58.834999999999994
   142   1      8.6099999999999905      57.399999999999991      60.269999999999982
   143   1      10.044999999999993      58.834999999999994      61.704999999999977
   144   1      8.6099999999999905      57.399999999999991      63.139999999999979
   145   1      10.044999999999993      58.834999999999994      64.574999999999989
   146   1      8.6099999999999905      57.399999999999991      66.009999999999991
   147   1      10.044999999999993      58.834999999999994      67.444999999999993
   148   1      10.044999999999993      61.704999999999977       47.35499999999999
   149   1      8.6099999999999905      60.269999999999982      48.789999999999992
   150   1      10.044999999999993      61.704999999999977      50.224999999999987
   151   1      8.6099999999999905      60.269999999999982      51.659999999999982
   152   1      10.044999999999993      61.704999999999977      53.094999999999992
   153   1      8.6099999999999905      60.269999999999982       54.52999999999998
   154   1      10.044999999999993      61.704999999999977      55.964999999999982
   155   1      8.6099999999999905      60.269999999999982      57.399999999999991
   156   1      10.044999999999993      61.704999999999977      58.834999999999994
   157   1      8.6099999999999905      60.269999999999982      60.269999999999982
   158   1      10.044999999999993      61.704999999999977      61.704999999999977
   159   1      8.6099999999999905      60.269999999999982      63.139999999999979
   160   1      10.044999999999993      61.704999999999977      64.574999999999989
   161   1      8.6099999999999905      60.269999999999982      66.009999999999991
   162   1      10.044999999999993      61.704999999999977      67.444999999999993
   163   1      8.6099999999999905      63.139999999999979      48.789999999999992
   164   1      10.044999999999993      64.574999999999989      50.224999999999987
   165   1      8.6099999999999905      63.139999999999979      51.659999999999982
   166   1      10.044999999999993      64.574999999999989      53.094999999999992
   167   1      8.6099999999999905      63.139999999999979       54.52999999999998
   168   1      10.044999999999993      64.574999999999989      55.964999999999982
   169   1      8.6099999999999905      63.139999999999979      57.399999999999991
   170   1      10.044999999999993      64.574999999999989      58.834999999999994
   171   1      8.6099999999999905      63.139999999999979      60.269999999999982
   172   1      10.044999999999993      64.574999999999989      61.704999999999977
   173   1      8.6099999999999905      63.139999999999979      63.139999999999979
   174   1      10.044999999999993      64.574999999999989      64.574999999999989
   175   1      8.6099999999999905      63.139999999999979      66.009999999999991
   176   1      8.6099999999999905      66.009999999999991      51.659999999999982
   177   1      10.044999999999993      67.444999999999993      53.094999999999992
   178   1      8.6099999999999905      66.009999999999991       54.52999999999998
   179   1      10.044999999999993      67.444999999999993      55.964999999999982
   180   1      8.6099999999999905      66.009999999999991      57.399999999999991
   181   1      10.044999999999993      67.444999999999993      58.834999999999994
   182   1      8.6099999999999905      66.009999999999991      60.269999999999982
   183   1      10.044999999999993      67.444999999999993      61.704999999999977
   184   1      8.6099999999999905      66.009999999999991      63.139999999999979
   185   1      12.914999999999992      44.484999999999992      53.094999999999992
   186   1      12.914999999999992      44.484999999999992      55.964999999999982
   187   1      12.914999999999992      44.484999999999992      58.834999999999994
   188   1      12.914999999999992      44.484999999999992      61.704999999999977
   189   1      12.914999999999992       47.35499999999999       47.35499999999999
   190   1      12.914999999999992       47.35499999999999      50.224999999999987
   191   1       11.47999999999999       45.91999999999998      51.659999999999982
   192   1      12.914999999999992       47.35499999999999      53.094999999999992
   193   1       11.47999999999999       45.91999999999998       54.52999999999998
   194   1      12.914999999999992       47.35499999999999      55.964999999999982
   195   1       11.47999999999999       45.91999999999998      57.399999999999991
   196   1      12.914999999999992       47.35499999999999      58.834999999999994
   197   1       11.47999999999999       45.91999999999998      60.269999999999982
   198   1      12.914999999999992       47.35499999999999      61.704999999999977
   199   1       11.47999999999999       45.91999999999998      63.139999999999979
   200   1      12.914999999999992       47.35499999999999      64.574999999999989
   201   1      12.914999999999992       47.35499999999999      67.444999999999993
   202   1      12.914999999999992      50.224999999999987       47.35499999999999
   203   1       11.47999999999999      48.789999999999992      48.789999999999992
   204   1      12.914999999999992      50.224999999999987      50.224999999999987
   205   1       11.47999999999999      48.789999999999992      51.659999999999982
   206   1      12.914999999999992      50.224999999999987      53.094999999999992
   207   1       11.47999999999999      48.789999999999992       54.52999999999998
   208   1      12.914999999999992      50.224999999999987      55.964999999999982
   209   1       11.47999999999999      48.789999999999992      57.399999999999991
   210   1      12.914999999999992      50.224999999999987      58.834999999999994
   211   1       11.47999999999999      48.789999999999992      60.269999999999982
   212   1      12.914999999999992      50.224999999999987      61.704999999999977
   213   1       11.47999999999999      48.789999999999992      63.139999999999979
   214   1      12.914999999999992      50.224999999999987      64.574999999999989
   215   1       11.47999999999999      48.789999999999992      66.009999999999991
   216   1      12.914999999999992      50.224999999999987      67.444999999999993
   217   1      12.914999999999992      53.094999999999992      44.484999999999992
   218   1       11.47999999999999      51.659999999999982       45.91999999999998
   219   1      12.914999999999992      53.094999999999992       47.35499999999999
   220   1       11.47999999999999      51.659999999999982      48.789999999999992
   221   1      12.914999999999992      53.094999999999992      50.224999999999987
   222   1       11.47999999999999      51.659999999999982      51.659999999999982
   223   1      12.914999999999992      53.094999999999992      53.094999999999992
   224   1       11.47999999999999      51.659999999999982       54.52999999999998
   225   1      12.914999999999992      53.094999999999992      55.964999999999982
   226   1       11.47999999999999      51.659999999999982      57.399999999999991
   227   1      12.914999999999992      53.094999999999992      58.834999999999994
   228   1       11.47999999999999      51.659999999999982      60.269999999999982
   229   1      12.914999999999992      53.094999999999992      61.704999999999977
   230   1       11.47999999999999      51.659999999999982      63.139999999999979
   231   1      12.914999999999992      53.094999999999992      64.574999999999989
   232   1       11.47999999999999      51.659999999999982      66.009999999999991
   233   1      12.914999999999992      53.094999999999992      67.444999999999993
   234   1       11.47999999999999      51.659999999999982      68.879999999999981
   235   1      12.914999999999992      53.094999999999992      70.314999999999984
   236   1      12.914999999999992      55.964999999999982      44.484999999999992
   237   1       11.47999999999999       54.52999999999998       45.91999999999998
   238   1      12.914999999999992      55.964999999999982       47.35499999999999
   239   1       11.47999999999999       54.52999999999998      48.789999999999992
   240   1      12.914999999999992      55.964999999999982      50.224999999999987
   241   1       11.47999999999999       54.52999999999998      51.659999999999982
   242   1      12.914999999999992      55.964999999999982      53.094999999999992
   243   1       11.47999999999999       54.52999999999998       54.52999999999998
   244   1      12.914999999999992      55.964999999999982      55.964999999999982
   245   1       11.47999999999999       54.52999999999998      57.399999999999991
   246   1      12.914999999999992      55.964999999999982      58.834999999999994
   247   1       11.47999999999999       54.52999999999998      60.269999999999982
   248   1      12.914999999999992      55.964999999999982      61.704999999999977
   249   1       11.47999999999999       54.52999999999998      63.139999999999979
   250   1      12.914999999999992      55.964999999999982      64.574999999999989
   251   1       11.47999999999999       54.52999999999998      66.009999999999991
   252   1      12.914999999999992      55.964999999999982      67.444999999999993
   253   1       11.47999999999999       54.52999999999998      68.879999999999981
   254   1      12.914999999999992      55.964999999999982      70.314999999999984
   255   1      12.914999999999992      58.834999999999994      44.484999999999992
   256   1       11.47999999999999      57.399999999999991       45.91999999999998
   257   1      12.914999999999992      58.834999999999994       47.35499999999999
   258   1       11.47999999999999      57.399999999999991      48.789999999999992
   259   1      12.914999999999992      58.834999999999994      50.224999999999987
   260   1       11.47999999999999      57.399999999999991      51.659999999999982
   261   1      12.914999999999992      58.834999999999994      53.094999999999992
   262   1       11.47999999999999      57.399999999999991       54.52999999999998
   263   1      12.914999999999992      58.834999999999994      55.964999999999982
   264   1       11.47999999999999      57.399999999999991      57.399999999999991
   265   1      12.914999999999992      58.834999999999994      58.834999999999994
   266   1       11.47999999999999      57.399999999999991      60.269999999999982
   267   1      12.914999999999992      58.834999999999994      61.704999999999977
   268   1       11.47999999999999      57.399999999999991      63.139999999999979
   269   1      12.914999999999992      58.834999999999994      64.574999999999989
   270   1       11.47999999999999      57.399999999999991      66.009999999999991
   271   1      12.914999999999992      58.834999999999994      67.444999999999993
   272   1       11.47999999999999      57.399999999999991      68.879999999999981
   273   1      12.914999999999992      58.834999999999994      70.314999999999984
   274   1      12.914999999999992      61.704999999999977      44.484999999999992
   275   1       11.47999999999999      60.269999999999982       45.91999999999998
   276   1      12.914999999999992      61.704999999999977       47.35499999999999
   277   1       11.47999999999999      60.269999999999982      48.789999999999992
   278   1      12.914999999999992      61.704999999999977      50.224999999999987
   279   1       11.47999999999999      60.269999999999982      51.659999999999982
   280   1      12.914999999999992      61.704999999999977      53.094999999999992
   281   1       11.47999999999999      60.269999999999982       54.52999999999998
   282   1      12.914999999999992      61.704999999999977      55.964999999999982
   283   1       11.47999999999999      60.269999999999982      57.399999999999991
   284   1      12.914999999999992      61.704999999999977      58.834999999999994
   285   1       11.47999999999999      60.269999999999982      60.269999999999982
   286   1      12.914999999999992      61.704999999999977      61.704999999999977
   287   1       11.47999999999999      60.269999999999982      63.139999999999979
   288   1      12.914999999999992      61.704999999999977      64.574999999999989
   289   1       11.47999999999999      60.269999999999982      66.009999999999991
   290   1      12.914999999999992      61.704999999999977      67.444999999999993
   291   1       11.47999999999999      60.269999999999982      68.879999999999981
   292   1      12.914999999999992      61.704999999999977      70.314999999999984
   293   1       11.47999999999999      63.139999999999979       45.91999999999998
   294   1      12.914999999999992      64.574999999999989       47.35499999999999
   295   1       11.47999999999999      63.139999999999979      48.789999999999992
   296   1      12.914999999999992      64.574999999999989      50.224999999999987
   297   1       11.47999999999999      63.139999999999979      51.659999999999982
   298   1      12.914999999999992      64.574999999999989      53.094999999999992
   299   1       11.47999999999999      63.139999999999979       54.52999999999998
   300   1      12.914999999999992      64.574999999999989      55.964999999999982
   301   1       11.47999999999999      63.139999999999979      57.399999999999991
   302   1      12.914999999999992      64.574999999999989      58.834999999999994
   303   1       11.47999999999999      63.139999999999979      60.269999999999982
   304   1      12.914999999999992      64.574999999999989      61.704999999999977
   305   1       11.47999999999999      63.139999999999979      63.139999999999979
   306   1      12.914999999999992      64.574999999999989      64.574999999999989
   307   1       11.47999999999999      63.139999999999979      66.009999999999991
   308   1      12.914999999999992      64.574999999999989      67.444999999999993
   309   1       11.47999999999999      63.139999999999979      68.879999999999981
   310   1      12.914999999999992      67.444999999999993       47.35499999999999
   311   1       11.47999999999999      66.009999999999991      48.789999999999992
   312   1      12.914999999999992      67.444999999999993      50.224999999999987
   313   1       11.47999999999999      66.009999999999991      51.659999999999982
   314   1      12.914999999999992      67.444999999999993      53.094999999999992
   315   1       11.47999999999999      66.009999999999991       54.52999999999998
   316   1      12.914999999999992      67.444999999999993      55.964999999999982
   317   1       11.47999999999999      66.009999999999991      57.399999999999991
   318   1      12.914999999999992      67.444999999999993      58.834999999999994
   319   1       11.47999999999999      66.009999999999991      60.269999999999982
   320   1      12.914999999999992      67.444999999999993      61.704999999999977
   321   1       11.47999999999999      66.009999999999991      63.139999999999979
   322   1      12.914999999999992      67.444999999999993      64.574999999999989
   323   1       11.47999999999999      66.009999999999991      66.009999999999991
   324   1      12.914999999999992      67.444999999999993      67.444999999999993
   325   1       11.47999999999999      68.879999999999981      51.659999999999982
   326   1      12.914999999999992      70.314999999999984      53.094999999999992
   327   1       11.47999999999999      68.879999999999981       54.52999999999998
   328   1      12.914999999999992      70.314999999999984      55.964999999999982
   329   1       11.47999999999999      68.879999999999981      57.399999999999991
   330   1      12.914999999999992      70.314999999999984      58.834999999999994
   331   1       11.47999999999999      68.879999999999981      60.269999999999982
   332   1      12.914999999999992      70.314999999999984      61.704999999999977
   333   1       11.47999999999999      68.879999999999981      63.139999999999979
   334   1      15.784999999999995      41.614999999999988      53.094999999999992
   335   1      15.784999999999995      41.614999999999988      55.964999999999982
   336   1      15.784999999999995      41.614999999999988      58.834999999999994
   337   1      15.784999999999995      41.614999999999988      61.704999999999977
   338   1      15.784999999999995      44.484999999999992      44.484999999999992
   339   1      15.784999999999995      44.484999999999992       47.35499999999999
   340   1      15.784999999999995      44.484999999999992      50.224999999999987
   341   1      14.349999999999994       43.04999999999999      51.659999999999982
   342   1      15.784999999999995      44.484999999999992      53.094999999999992
   343   1      14.349999999999994       43.04999999999999       54.52999999999998
   344   1      15.784999999999995      44.484999999999992      55.964999999999982
   345   1      14.349999999999994       43.04999999999999      57.399999999999991
   346   1      15.784999999999995      44.484999999999992      58.834999999999994
   347   1      14.349999999999994       43.04999999999999      60.269999999999982
   348   1      15.784999999999995      44.484999999999992      61.704999999999977
   349   1      14.349999999999994       43.04999999999999      63.139999999999979
   350   1      15.784999999999995      44.484999999999992      64.574999999999989
   351   1      15.784999999999995      44.484999999999992      67.444999999999993
   352   1      15.784999999999995      44.484999999999992      70.314999999999984
   353   1      15.784999999999995       47.35499999999999      44.484999999999992
   354   1      14.349999999999994       45.91999999999998       45.91999999999998
   355   1      15.784999999999995       47.35499999999999       47.35499999999999
   356   1      14.349999999999994       45.91999999999998      48.789999999999992
   357   1      15.784999999999995       47.35499999999999      50.224999999999987
   358   1      14.349999999999994       45.91999999999998      51.659999999999982