model_files/CuAu/CuAu_30000/CuAu_540/CuAu_540_fcc_29765_temp.data (written by ASE) 

29765 	 atoms 
2  atom types
0.0                     104  xlo xhi
0.0                     104  ylo yhi
0.0                     104  zlo zhi


Atoms 

     1   1  7.1054273576010019e-15      50.490000000000002      50.490000000000002
     2   1      1.8700000000000048      48.620000000000012      50.490000000000002
     3   1      1.8700000000000048      50.490000000000002      48.620000000000012
     4   1  7.1054273576010019e-15      50.490000000000002      54.230000000000004
     5   1      1.8700000000000048      48.620000000000012      54.230000000000004
     6   1      1.8700000000000048      50.490000000000002      52.360000000000007
     7   1      1.8700000000000048      50.490000000000002      56.100000000000009
     8   1  7.1054273576010019e-15      54.230000000000004      50.490000000000002
     9   1      1.8700000000000048      52.360000000000007      50.490000000000002
    10   1      1.8700000000000048      54.230000000000004      48.620000000000012
    11   1  7.1054273576010019e-15      52.360000000000007      52.360000000000007
    12   1  7.1054273576010019e-15      54.230000000000004      54.230000000000004
    13   1      1.8700000000000048      52.360000000000007      54.230000000000004
    14   1      1.8700000000000048      54.230000000000004      52.360000000000007
    15   1      1.8700000000000048      54.230000000000004      56.100000000000009
    16   1      1.8700000000000048      56.100000000000009      50.490000000000002
    17   1      1.8700000000000048      56.100000000000009      54.230000000000004
    18   1       3.740000000000002      46.750000000000007      46.750000000000007
    19   1      5.6100000000000074       44.88000000000001      46.750000000000007
    20   1      5.6100000000000074      46.750000000000007       44.88000000000001
    21   1       3.740000000000002      46.750000000000007      50.490000000000002
    22   1      5.6100000000000074       44.88000000000001      50.490000000000002
    23   1      5.6100000000000074      46.750000000000007      48.620000000000012
    24   1       3.740000000000002      46.750000000000007      54.230000000000004
    25   1      5.6100000000000074       44.88000000000001      54.230000000000004
    26   1      5.6100000000000074      46.750000000000007      52.360000000000007
    27   1       3.740000000000002      46.750000000000007      57.970000000000006
    28   1      5.6100000000000074       44.88000000000001      57.970000000000006
    29   1      5.6100000000000074      46.750000000000007      56.100000000000009
    30   1      5.6100000000000074      46.750000000000007      59.840000000000011
    31   1       3.740000000000002      50.490000000000002      46.750000000000007
    32   1      5.6100000000000074      48.620000000000012      46.750000000000007
    33   1      5.6100000000000074      50.490000000000002       44.88000000000001
    34   1       3.740000000000002      48.620000000000012      48.620000000000012
    35   1       3.740000000000002      50.490000000000002      50.490000000000002
    36   1      5.6100000000000074      48.620000000000012      50.490000000000002
    37   1      5.6100000000000074      50.490000000000002      48.620000000000012
    38   1       3.740000000000002      48.620000000000012      52.360000000000007
    39   1       3.740000000000002      50.490000000000002      54.230000000000004
    40   1      5.6100000000000074      48.620000000000012      54.230000000000004
    41   1      5.6100000000000074      50.490000000000002      52.360000000000007
    42   1       3.740000000000002      48.620000000000012      56.100000000000009
    43   1       3.740000000000002      50.490000000000002      57.970000000000006
    44   1      5.6100000000000074      48.620000000000012      57.970000000000006
    45   1      5.6100000000000074      50.490000000000002      56.100000000000009
    46   1      5.6100000000000074      50.490000000000002      59.840000000000011
    47   1       3.740000000000002      54.230000000000004      46.750000000000007
    48   1      5.6100000000000074      52.360000000000007      46.750000000000007
    49   1      5.6100000000000074      54.230000000000004       44.88000000000001
    50   1       3.740000000000002      52.360000000000007      48.620000000000012
    51   1       3.740000000000002      54.230000000000004      50.490000000000002
    52   1      5.6100000000000074      52.360000000000007      50.490000000000002
    53   1      5.6100000000000074      54.230000000000004      48.620000000000012
    54   1       3.740000000000002      52.360000000000007      52.360000000000007
    55   1       3.740000000000002      54.230000000000004      54.230000000000004
    56   1      5.6100000000000074      52.360000000000007      54.230000000000004
    57   1      5.6100000000000074      54.230000000000004      52.360000000000007
    58   1       3.740000000000002      52.360000000000007      56.100000000000009
    59   1       3.740000000000002      54.230000000000004      57.970000000000006
    60   1      5.6100000000000074      52.360000000000007      57.970000000000006
    61   1      5.6100000000000074      54.230000000000004      56.100000000000009
    62   1      5.6100000000000074      54.230000000000004      59.840000000000011
    63   1       3.740000000000002      57.970000000000006      46.750000000000007
    64   1      5.6100000000000074      56.100000000000009      46.750000000000007
    65   1      5.6100000000000074      57.970000000000006       44.88000000000001
    66   1       3.740000000000002      56.100000000000009      48.620000000000012
    67   1       3.740000000000002      57.970000000000006      50.490000000000002
    68   1      5.6100000000000074      56.100000000000009      50.490000000000002
    69   1      5.6100000000000074      57.970000000000006      48.620000000000012
    70   1       3.740000000000002      56.100000000000009      52.360000000000007
    71   1       3.740000000000002      57.970000000000006      54.230000000000004
    72   1      5.6100000000000074      56.100000000000009      54.230000000000004
    73   1      5.6100000000000074      57.970000000000006      52.360000000000007
    74   1       3.740000000000002      56.100000000000009      56.100000000000009
    75   1       3.740000000000002      57.970000000000006      57.970000000000006
    76   1      5.6100000000000074      56.100000000000009      57.970000000000006
    77   1      5.6100000000000074      57.970000000000006      56.100000000000009
    78   1      5.6100000000000074      57.970000000000006      59.840000000000011
    79   1      5.6100000000000074      59.840000000000011      46.750000000000007
    80   1      5.6100000000000074      59.840000000000011      50.490000000000002
    81   1      5.6100000000000074      59.840000000000011      54.230000000000004
    82   1      5.6100000000000074      59.840000000000011      57.970000000000006
    83   1      9.3500000000000014       39.27000000000001      41.140000000000008
    84   1      9.3500000000000014       39.27000000000001       44.88000000000001
    85   1      9.3500000000000014       39.27000000000001      48.620000000000012
    86   1      9.3500000000000014       39.27000000000001      52.360000000000007
    87   1      9.3500000000000014       39.27000000000001      56.100000000000009
    88   1      9.3500000000000014       39.27000000000001      59.840000000000011
    89   1      9.3500000000000014       39.27000000000001      63.580000000000013
    90   1      9.3500000000000014      41.140000000000008       39.27000000000001
    91   1       7.480000000000004      41.140000000000008      41.140000000000008
    92   1       7.480000000000004      43.010000000000012      43.010000000000012
    93   1      9.3500000000000014      41.140000000000008      43.010000000000012
    94   1      9.3500000000000014      43.010000000000012      41.140000000000008
    95   1       7.480000000000004      41.140000000000008       44.88000000000001
    96   1       7.480000000000004      43.010000000000012      46.750000000000007
    97   1      9.3500000000000014      41.140000000000008      46.750000000000007
    98   1      9.3500000000000014      43.010000000000012       44.88000000000001
    99   1       7.480000000000004      41.140000000000008      48.620000000000012
   100   1       7.480000000000004      43.010000000000012      50.490000000000002
   101   1      9.3500000000000014      41.140000000000008      50.490000000000002
   102   1      9.3500000000000014      43.010000000000012      48.620000000000012
   103   1       7.480000000000004      41.140000000000008      52.360000000000007
   104   1       7.480000000000004      43.010000000000012      54.230000000000004
   105   1      9.3500000000000014      41.140000000000008      54.230000000000004
   106   1      9.3500000000000014      43.010000000000012      52.360000000000007
   107   1       7.480000000000004      41.140000000000008      56.100000000000009
   108   1       7.480000000000004      43.010000000000012      57.970000000000006
   109   1      9.3500000000000014      41.140000000000008      57.970000000000006
   110   1      9.3500000000000014      43.010000000000012      56.100000000000009
   111   1       7.480000000000004      41.140000000000008      59.840000000000011
   112   1       7.480000000000004      43.010000000000012      61.710000000000008
   113   1      9.3500000000000014      41.140000000000008      61.710000000000008
   114   1      9.3500000000000014      43.010000000000012      59.840000000000011
   115   1       7.480000000000004      41.140000000000008      63.580000000000013
   116   1      9.3500000000000014      41.140000000000008      65.450000000000017
   117   1      9.3500000000000014      43.010000000000012      63.580000000000013
   118   1      9.3500000000000014       44.88000000000001       39.27000000000001
   119   1       7.480000000000004       44.88000000000001      41.140000000000008
   120   1       7.480000000000004      46.750000000000007      43.010000000000012
   121   1      9.3500000000000014       44.88000000000001      43.010000000000012
   122   1      9.3500000000000014      46.750000000000007      41.140000000000008
   123   1       7.480000000000004       44.88000000000001       44.88000000000001
   124   1       7.480000000000004      46.750000000000007      46.750000000000007
   125   1      9.3500000000000014       44.88000000000001      46.750000000000007
   126   1      9.3500000000000014      46.750000000000007       44.88000000000001
   127   1       7.480000000000004       44.88000000000001      48.620000000000012
   128   1       7.480000000000004      46.750000000000007      50.490000000000002
   129   1      9.3500000000000014       44.88000000000001      50.490000000000002
   130   1      9.3500000000000014      46.750000000000007      48.620000000000012
   131   1       7.480000000000004       44.88000000000001      52.360000000000007
   132   1       7.480000000000004      46.750000000000007      54.230000000000004
   133   1      9.3500000000000014       44.88000000000001      54.230000000000004
   134   1      9.3500000000000014      46.750000000000007      52.360000000000007
   135   1       7.480000000000004       44.88000000000001      56.100000000000009
   136   1       7.480000000000004      46.750000000000007      57.970000000000006
   137   1      9.3500000000000014       44.88000000000001      57.970000000000006
   138   1      9.3500000000000014      46.750000000000007      56.100000000000009
   139   1       7.480000000000004       44.88000000000001      59.840000000000011
   140   1       7.480000000000004      46.750000000000007      61.710000000000008
   141   1      9.3500000000000014       44.88000000000001      61.710000000000008
   142   1      9.3500000000000014      46.750000000000007      59.840000000000011
   143   1       7.480000000000004       44.88000000000001      63.580000000000013
   144   1      9.3500000000000014       44.88000000000001      65.450000000000017
   145   1      9.3500000000000014      46.750000000000007      63.580000000000013
   146   1      9.3500000000000014      48.620000000000012       39.27000000000001
   147   1       7.480000000000004      48.620000000000012      41.140000000000008
   148   1       7.480000000000004      50.490000000000002      43.010000000000012
   149   1      9.3500000000000014      48.620000000000012      43.010000000000012
   150   1      9.3500000000000014      50.490000000000002      41.140000000000008
   151   1       7.480000000000004      48.620000000000012       44.88000000000001
   152   1       7.480000000000004      50.490000000000002      46.750000000000007
   153   1      9.3500000000000014      48.620000000000012      46.750000000000007
   154   1      9.3500000000000014      50.490000000000002       44.88000000000001
   155   1       7.480000000000004      48.620000000000012      48.620000000000012
   156   1       7.480000000000004      50.490000000000002      50.490000000000002
   157   1      9.3500000000000014      48.620000000000012      50.490000000000002
   158   1      9.3500000000000014      50.490000000000002      48.620000000000012
   159   1       7.480000000000004      48.620000000000012      52.360000000000007
   160   1       7.480000000000004      50.490000000000002      54.230000000000004
   161   1      9.3500000000000014      48.620000000000012      54.230000000000004
   162   1      9.3500000000000014      50.490000000000002      52.360000000000007
   163   1       7.480000000000004      48.620000000000012      56.100000000000009
   164   1       7.480000000000004      50.490000000000002      57.970000000000006
   165   1      9.3500000000000014      48.620000000000012      57.970000000000006
   166   1      9.3500000000000014      50.490000000000002      56.100000000000009
   167   1       7.480000000000004      48.620000000000012      59.840000000000011
   168   1       7.480000000000004      50.490000000000002      61.710000000000008
   169   1      9.3500000000000014      48.620000000000012      61.710000000000008
   170   1      9.3500000000000014      50.490000000000002      59.840000000000011
   171   1       7.480000000000004      48.620000000000012      63.580000000000013
   172   1      9.3500000000000014      48.620000000000012      65.450000000000017
   173   1      9.3500000000000014      50.490000000000002      63.580000000000013
   174   1      9.3500000000000014      52.360000000000007       39.27000000000001
   175   1       7.480000000000004      52.360000000000007      41.140000000000008
   176   1       7.480000000000004      54.230000000000004      43.010000000000012
   177   1      9.3500000000000014      52.360000000000007      43.010000000000012
   178   1      9.3500000000000014      54.230000000000004      41.140000000000008
   179   1       7.480000000000004      52.360000000000007       44.88000000000001
   180   1       7.480000000000004      54.230000000000004      46.750000000000007
   181   1      9.3500000000000014      52.360000000000007      46.750000000000007
   182   1      9.3500000000000014      54.230000000000004       44.88000000000001
   183   1       7.480000000000004      52.360000000000007      48.620000000000012
   184   1       7.480000000000004      54.230000000000004      50.490000000000002
   185   1      9.3500000000000014      52.360000000000007      50.490000000000002
   186   1      9.3500000000000014      54.230000000000004      48.620000000000012
   187   1       7.480000000000004      52.360000000000007      52.360000000000007
   188   1       7.480000000000004      54.230000000000004      54.230000000000004
   189   1      9.3500000000000014      52.360000000000007      54.230000000000004
   190   1      9.3500000000000014      54.230000000000004      52.360000000000007
   191   1       7.480000000000004      52.360000000000007      56.100000000000009
   192   1       7.480000000000004      54.230000000000004      57.970000000000006
   193   1      9.3500000000000014      52.360000000000007      57.970000000000006
   194   1      9.3500000000000014      54.230000000000004      56.100000000000009
   195   1       7.480000000000004      52.360000000000007      59.840000000000011
   196   1       7.480000000000004      54.230000000000004      61.710000000000008
   197   1      9.3500000000000014      52.360000000000007      61.710000000000008
   198   1      9.3500000000000014      54.230000000000004      59.840000000000011
   199   1       7.480000000000004      52.360000000000007      63.580000000000013
   200   1      9.3500000000000014      52.360000000000007      65.450000000000017
   201   1      9.3500000000000014      54.230000000000004      63.580000000000013
   202   1      9.3500000000000014      56.100000000000009       39.27000000000001
   203   1       7.480000000000004      56.100000000000009      41.140000000000008
   204   1       7.480000000000004      57.970000000000006      43.010000000000012
   205   1      9.3500000000000014      56.100000000000009      43.010000000000012
   206   1      9.3500000000000014      57.970000000000006      41.140000000000008
   207   1       7.480000000000004      56.100000000000009       44.88000000000001
   208   1       7.480000000000004      57.970000000000006      46.750000000000007
   209   1      9.3500000000000014      56.100000000000009      46.750000000000007
   210   1      9.3500000000000014      57.970000000000006       44.88000000000001
   211   1       7.480000000000004      56.100000000000009      48.620000000000012
   212   1       7.480000000000004      57.970000000000006      50.490000000000002
   213   1      9.3500000000000014      56.100000000000009      50.490000000000002
   214   1      9.3500000000000014      57.970000000000006      48.620000000000012
   215   1       7.480000000000004      56.100000000000009      52.360000000000007
   216   1       7.480000000000004      57.970000000000006      54.230000000000004
   217   1      9.3500000000000014      56.100000000000009      54.230000000000004
   218   1      9.3500000000000014      57.970000000000006      52.360000000000007
   219   1       7.480000000000004      56.100000000000009      56.100000000000009
   220   1       7.480000000000004      57.970000000000006      57.970000000000006
   221   1      9.3500000000000014      56.100000000000009      57.970000000000006
   222   1      9.3500000000000014      57.970000000000006      56.100000000000009
   223   1       7.480000000000004      56.100000000000009      59.840000000000011
   224   1       7.480000000000004      57.970000000000006      61.710000000000008
   225   1      9.3500000000000014      56.100000000000009      61.710000000000008
   226   1      9.3500000000000014      57.970000000000006      59.840000000000011
   227   1       7.480000000000004      56.100000000000009      63.580000000000013
   228   1      9.3500000000000014      56.100000000000009      65.450000000000017
   229   1      9.3500000000000014      57.970000000000006      63.580000000000013
   230   1      9.3500000000000014      59.840000000000011       39.27000000000001
   231   1       7.480000000000004      59.840000000000011      41.140000000000008
   232   1       7.480000000000004      61.710000000000008      43.010000000000012
   233   1      9.3500000000000014      59.840000000000011      43.010000000000012
   234   1      9.3500000000000014      61.710000000000008      41.140000000000008
   235   1       7.480000000000004      59.840000000000011       44.88000000000001
   236   1       7.480000000000004      61.710000000000008      46.750000000000007
   237   1      9.3500000000000014      59.840000000000011      46.750000000000007
   238   1      9.3500000000000014      61.710000000000008       44.88000000000001
   239   1       7.480000000000004      59.840000000000011      48.620000000000012
   240   1       7.480000000000004      61.710000000000008      50.490000000000002
   241   1      9.3500000000000014      59.840000000000011      50.490000000000002
   242   1      9.3500000000000014      61.710000000000008      48.620000000000012
   243   1       7.480000000000004      59.840000000000011      52.360000000000007
   244   1       7.480000000000004      61.710000000000008      54.230000000000004
   245   1      9.3500000000000014      59.840000000000011      54.230000000000004
   246   1      9.3500000000000014      61.710000000000008      52.360000000000007
   247   1       7.480000000000004      59.840000000000011      56.100000000000009
   248   1       7.480000000000004      61.710000000000008      57.970000000000006
   249   1      9.3500000000000014      59.840000000000011      57.970000000000006
   250   1      9.3500000000000014      61.710000000000008      56.100000000000009
   251   1       7.480000000000004      59.840000000000011      59.840000000000011
   252   1       7.480000000000004      61.710000000000008      61.710000000000008
   253   1      9.3500000000000014      59.840000000000011      61.710000000000008
   254   1      9.3500000000000014      61.710000000000008      59.840000000000011
   255   1       7.480000000000004      59.840000000000011      63.580000000000013
   256   1      9.3500000000000014      59.840000000000011      65.450000000000017
   257   1      9.3500000000000014      61.710000000000008      63.580000000000013
   258   1      9.3500000000000014      63.580000000000013       39.27000000000001
   259   1       7.480000000000004      63.580000000000013      41.140000000000008
   260   1      9.3500000000000014      63.580000000000013      43.010000000000012
   261   1      9.3500000000000014      65.450000000000017      41.140000000000008
   262   1       7.480000000000004      63.580000000000013       44.88000000000001
   263   1      9.3500000000000014      63.580000000000013      46.750000000000007
   264   1      9.3500000000000014      65.450000000000017       44.88000000000001
   265   1       7.480000000000004      63.580000000000013      48.620000000000012
   266   1      9.3500000000000014      63.580000000000013      50.490000000000002
   267   1      9.3500000000000014      65.450000000000017      48.620000000000012
   268   1       7.480000000000004      63.580000000000013      52.360000000000007
   269   1      9.3500000000000014      63.580000000000013      54.230000000000004
   270   1      9.3500000000000014      65.450000000000017      52.360000000000007
   271   1       7.480000000000004      63.580000000000013      56.100000000000009
   272   1      9.3500000000000014      63.580000000000013      57.970000000000006
   273   1      9.3500000000000014      65.450000000000017      56.100000000000009
   274   1       7.480000000000004      63.580000000000013      59.840000000000011
   275   1      9.3500000000000014      63.580000000000013      61.710000000000008
   276   1      9.3500000000000014      65.450000000000017      59.840000000000011
   277   1       7.480000000000004      63.580000000000013      63.580000000000013
   278   1      9.3500000000000014      63.580000000000013      65.450000000000017
   279   1      9.3500000000000014      65.450000000000017      63.580000000000013
   280   1      13.090000000000011      35.530000000000008      37.400000000000006
   281   1      13.090000000000011      35.530000000000008      41.140000000000008
   282   1      13.090000000000011      35.530000000000008       44.88000000000001
   283   1      13.090000000000011      35.530000000000008      48.620000000000012
   284   1      13.090000000000011      35.530000000000008      52.360000000000007
   285   1      13.090000000000011      35.530000000000008      56.100000000000009
   286   1      13.090000000000011      35.530000000000008      59.840000000000011
   287   1      13.090000000000011      35.530000000000008      63.580000000000013
   288   1      13.090000000000011      35.530000000000008      67.320000000000007
   289   1      13.090000000000011      37.400000000000006      35.530000000000008
   290   1      11.220000000000008      37.400000000000006      37.400000000000006
   291   1      11.220000000000008       39.27000000000001       39.27000000000001
   292   1      13.090000000000011      37.400000000000006       39.27000000000001
   293   1      13.090000000000011       39.27000000000001      37.400000000000006
   294   1      11.220000000000008      37.400000000000006      41.140000000000008
   295   1      11.220000000000008       39.27000000000001      43.010000000000012
   296   1      13.090000000000011      37.400000000000006      43.010000000000012
   297   1      13.090000000000011       39.27000000000001      41.140000000000008
   298   1      11.220000000000008      37.400000000000006       44.88000000000001
   299   1      11.220000000000008       39.27000000000001      46.750000000000007
   300   1      13.090000000000011      37.400000000000006      46.750000000000007
   301   1      13.090000000000011       39.27000000000001       44.88000000000001
   302   1      11.220000000000008      37.400000000000006      48.620000000000012
   303   1      11.220000000000008       39.27000000000001      50.490000000000002
   304   1      13.090000000000011      37.400000000000006      50.490000000000002
   305   1      13.090000000000011       39.27000000000001      48.620000000000012
   306   1      11.220000000000008      37.400000000000006      52.360000000000007
   307   1      11.220000000000008       39.27000000000001      54.230000000000004
   308   1      13.090000000000011      37.400000000000006      54.230000000000004
   309   1      13.090000000000011       39.27000000000001      52.360000000000007
   310   1      11.220000000000008      37.400000000000006      56.100000000000009
   311   1      11.220000000000008       39.27000000000001      57.970000000000006
   312   1      13.090000000000011      37.400000000000006      57.970000000000006
   313   1      13.090000000000011       39.27000000000001      56.100000000000009
   314   1      11.220000000000008      37.400000000000006      59.840000000000011
   315   1      11.220000000000008       39.27000000000001      61.710000000000008
   316   1      13.090000000000011      37.400000000000006      61.710000000000008
   317   1      13.090000000000011       39.27000000000001      59.840000000000011
   318   1      11.220000000000008      37.400000000000006      63.580000000000013
   319   1      11.220000000000008       39.27000000000001      65.450000000000017
   320   1      13.090000000000011      37.400000000000006      65.450000000000017
   321   1      13.090000000000011       39.27000000000001      63.580000000000013
   322   1      11.220000000000008      37.400000000000006      67.320000000000007
   323   1      13.090000000000011      37.400000000000006      69.190000000000012
   324   1      13.090000000000011       39.27000000000001      67.320000000000007
   325   1      13.090000000000011      41.140000000000008      35.530000000000008
   326   1      11.220000000000008      41.140000000000008      37.400000000000006
   327   1      11.220000000000008      43.010000000000012       39.27000000000001
   328   1      13.090000000000011      41.140000000000008       39.27000000000001
   329   1      13.090000000000011      43.010000000000012      37.400000000000006
   330   1      11.220000000000008      41.140000000000008      41.140000000000008
   331   1      11.220000000000008      43.010000000000012      43.010000000000012
   332   1      13.090000000000011      41.140000000000008      43.010000000000012
   333   1      13.090000000000011      43.010000000000012      41.140000000000008
   334   1      11.220000000000008      41.140000000000008       44.88000000000001
   335   1      11.220000000000008      43.010000000000012      46.750000000000007
   336   1      13.090000000000011      41.140000000000008      46.750000000000007
   337   1      13.090000000000011      43.010000000000012       44.88000000000001
   338   1      11.220000000000008      41.140000000000008      48.620000000000012
   339   1      11.220000000000008      43.010000000000012      50.490000000000002
   340   1      13.090000000000011      41.140000000000008      50.490000000000002
   341   1      13.090000000000011      43.010000000000012      48.620000000000012
   342   1      11.220000000000008      41.140000000000008      52.360000000000007
   343   1      11.220000000000008      43.010000000000012      54.230000000000004
   344   1      13.090000000000011      41.140000000000008      54.230000000000004
   345   1      13.090000000000011      43.010000000000012      52.360000000000007
   346   1      11.220000000000008      41.140000000000008      56.100000000000009
   347   1      11.220000000000008      43.010000000000012      57.970000000000006
   348   1      13.090000000000011      41.140000000000008      57.970000000000006
   349   1      13.090000000000011      43.010000000000012      56.100000000000009
   350   1      11.220000000000008      41.140000000000008      59.840000000000011
   351   1      11.220000000000008      43.010000000000012      61.710000000000008
   352   1      13.090000000000011      41.140000000000008      61.710000000000008
   353   1      13.090000000000011      43.010000000000012      59.840000000000011
   354   1      11.220000000000008      41.140000000000008      63.580000000000013
   355   1      11.220000000000008      43.010000000000012      65.450000000000017
   356   1      13.090000000000011      41.140000000000008      65.450000000000017
   357   1      13.090000000000011      43.010000000000012      63.580000000000013
   358   1      11.220000000000008      41.140000000000008      67.320000000000007