model_files/Pt/Pt_10000/Pt_100/data.Pt_100_fcc_9841 (written by ASE) 

9841 	 atoms 
1  atom types
0.0                      50  xlo xhi
0.0                      50  ylo yhi
0.0                      50  zlo zhi


Atoms 

     1   1  7.1054273576010019e-15  7.1054273576010019e-15       1.960000000000008
     2   1  7.1054273576010019e-15  7.1054273576010019e-15      5.8800000000000061
     3   1  7.1054273576010019e-15  7.1054273576010019e-15       9.800000000000006
     4   1  7.1054273576010019e-15  7.1054273576010019e-15      13.720000000000008
     5   1  7.1054273576010019e-15  7.1054273576010019e-15      17.640000000000008
     6   1  7.1054273576010019e-15  7.1054273576010019e-15      21.560000000000006
     7   1  7.1054273576010019e-15  7.1054273576010019e-15      25.480000000000004
     8   1  7.1054273576010019e-15  7.1054273576010019e-15      29.400000000000006
     9   1  7.1054273576010019e-15  7.1054273576010019e-15      33.320000000000007
    10   1  7.1054273576010019e-15  7.1054273576010019e-15      37.240000000000009
    11   1  7.1054273576010019e-15  7.1054273576010019e-15      41.160000000000004
    12   1  7.1054273576010019e-15  7.1054273576010019e-15      45.080000000000013
    13   1  7.1054273576010019e-15  7.1054273576010019e-15      49.000000000000007
    14   1  7.1054273576010019e-15       1.960000000000008  7.1054273576010019e-15
    15   1  7.1054273576010019e-15       1.960000000000008      3.9200000000000053
    16   1  7.1054273576010019e-15      3.9200000000000053       1.960000000000008
    17   1  7.1054273576010019e-15       1.960000000000008       7.840000000000007
    18   1  7.1054273576010019e-15      3.9200000000000053      5.8800000000000061
    19   1  7.1054273576010019e-15       1.960000000000008      11.760000000000005
    20   1  7.1054273576010019e-15      3.9200000000000053       9.800000000000006
    21   1  7.1054273576010019e-15       1.960000000000008      15.680000000000009
    22   1  7.1054273576010019e-15      3.9200000000000053      13.720000000000008
    23   1  7.1054273576010019e-15       1.960000000000008      19.600000000000009
    24   1  7.1054273576010019e-15      3.9200000000000053      17.640000000000008
    25   1  7.1054273576010019e-15       1.960000000000008      23.520000000000007
    26   1  7.1054273576010019e-15      3.9200000000000053      21.560000000000006
    27   1  7.1054273576010019e-15       1.960000000000008      27.440000000000005
    28   1  7.1054273576010019e-15      3.9200000000000053      25.480000000000004
    29   1  7.1054273576010019e-15       1.960000000000008      31.360000000000003
    30   1  7.1054273576010019e-15      3.9200000000000053      29.400000000000006
    31   1  7.1054273576010019e-15       1.960000000000008      35.280000000000008
    32   1  7.1054273576010019e-15      3.9200000000000053      33.320000000000007
    33   1  7.1054273576010019e-15       1.960000000000008       39.20000000000001
    34   1  7.1054273576010019e-15      3.9200000000000053      37.240000000000009
    35   1  7.1054273576010019e-15       1.960000000000008      43.120000000000005
    36   1  7.1054273576010019e-15      3.9200000000000053      41.160000000000004
    37   1  7.1054273576010019e-15       1.960000000000008      47.040000000000006
    38   1  7.1054273576010019e-15      3.9200000000000053      45.080000000000013
    39   1  7.1054273576010019e-15       1.960000000000008     0.96000000000000529
    40   1  7.1054273576010019e-15      3.9200000000000053      49.000000000000007
    41   1  7.1054273576010019e-15      5.8800000000000061  7.1054273576010019e-15
    42   1  7.1054273576010019e-15      5.8800000000000061      3.9200000000000053
    43   1  7.1054273576010019e-15       7.840000000000007       1.960000000000008
    44   1  7.1054273576010019e-15      5.8800000000000061       7.840000000000007
    45   1  7.1054273576010019e-15       7.840000000000007      5.8800000000000061
    46   1  7.1054273576010019e-15      5.8800000000000061      11.760000000000005
    47   1  7.1054273576010019e-15       7.840000000000007       9.800000000000006
    48   1  7.1054273576010019e-15      5.8800000000000061      15.680000000000009
    49   1  7.1054273576010019e-15       7.840000000000007      13.720000000000008
    50   1  7.1054273576010019e-15      5.8800000000000061      19.600000000000009
    51   1  7.1054273576010019e-15       7.840000000000007      17.640000000000008
    52   1  7.1054273576010019e-15      5.8800000000000061      23.520000000000007
    53   1  7.1054273576010019e-15       7.840000000000007      21.560000000000006
    54   1  7.1054273576010019e-15      5.8800000000000061      27.440000000000005
    55   1  7.1054273576010019e-15       7.840000000000007      25.480000000000004
    56   1  7.1054273576010019e-15      5.8800000000000061      31.360000000000003
    57   1  7.1054273576010019e-15       7.840000000000007      29.400000000000006
    58   1  7.1054273576010019e-15      5.8800000000000061      35.280000000000008
    59   1  7.1054273576010019e-15       7.840000000000007      33.320000000000007
    60   1  7.1054273576010019e-15      5.8800000000000061       39.20000000000001
    61   1  7.1054273576010019e-15       7.840000000000007      37.240000000000009
    62   1  7.1054273576010019e-15      5.8800000000000061      43.120000000000005
    63   1  7.1054273576010019e-15       7.840000000000007      41.160000000000004
    64   1  7.1054273576010019e-15      5.8800000000000061      47.040000000000006
    65   1  7.1054273576010019e-15       7.840000000000007      45.080000000000013
    66   1  7.1054273576010019e-15      5.8800000000000061     0.96000000000000529
    67   1  7.1054273576010019e-15       7.840000000000007      49.000000000000007
    68   1  7.1054273576010019e-15       9.800000000000006  7.1054273576010019e-15
    69   1  7.1054273576010019e-15       9.800000000000006      3.9200000000000053
    70   1  7.1054273576010019e-15      11.760000000000005       1.960000000000008
    71   1  7.1054273576010019e-15       9.800000000000006       7.840000000000007
    72   1  7.1054273576010019e-15      11.760000000000005      5.8800000000000061
    73   1  7.1054273576010019e-15       9.800000000000006      11.760000000000005
    74   1  7.1054273576010019e-15      11.760000000000005       9.800000000000006
    75   1  7.1054273576010019e-15       9.800000000000006      15.680000000000009
    76   1  7.1054273576010019e-15      11.760000000000005      13.720000000000008
    77   1  7.1054273576010019e-15       9.800000000000006      19.600000000000009
    78   1  7.1054273576010019e-15      11.760000000000005      17.640000000000008
    79   1  7.1054273576010019e-15       9.800000000000006      23.520000000000007
    80   1  7.1054273576010019e-15      11.760000000000005      21.560000000000006
    81   1  7.1054273576010019e-15       9.800000000000006      27.440000000000005
    82   1  7.1054273576010019e-15      11.760000000000005      25.480000000000004
    83   1  7.1054273576010019e-15       9.800000000000006      31.360000000000003
    84   1  7.1054273576010019e-15      11.760000000000005      29.400000000000006
    85   1  7.1054273576010019e-15       9.800000000000006      35.280000000000008
    86   1  7.1054273576010019e-15      11.760000000000005      33.320000000000007
    87   1  7.1054273576010019e-15       9.800000000000006       39.20000000000001
    88   1  7.1054273576010019e-15      11.760000000000005      37.240000000000009
    89   1  7.1054273576010019e-15       9.800000000000006      43.120000000000005
    90   1  7.1054273576010019e-15      11.760000000000005      41.160000000000004
    91   1  7.1054273576010019e-15       9.800000000000006      47.040000000000006
    92   1  7.1054273576010019e-15      11.760000000000005      45.080000000000013
    93   1  7.1054273576010019e-15       9.800000000000006     0.96000000000000529
    94   1  7.1054273576010019e-15      11.760000000000005      49.000000000000007
    95   1  7.1054273576010019e-15      13.720000000000008  7.1054273576010019e-15
    96   1  7.1054273576010019e-15      13.720000000000008      3.9200000000000053
    97   1  7.1054273576010019e-15      15.680000000000009       1.960000000000008
    98   1  7.1054273576010019e-15      13.720000000000008       7.840000000000007
    99   1  7.1054273576010019e-15      15.680000000000009      5.8800000000000061
   100   1  7.1054273576010019e-15      13.720000000000008      11.760000000000005
   101   1  7.1054273576010019e-15      15.680000000000009       9.800000000000006
   102   1  7.1054273576010019e-15      13.720000000000008      15.680000000000009
   103   1  7.1054273576010019e-15      15.680000000000009      13.720000000000008
   104   1  7.1054273576010019e-15      13.720000000000008      19.600000000000009
   105   1  7.1054273576010019e-15      15.680000000000009      17.640000000000008
   106   1  7.1054273576010019e-15      13.720000000000008      23.520000000000007
   107   1  7.1054273576010019e-15      15.680000000000009      21.560000000000006
   108   1  7.1054273576010019e-15      13.720000000000008      27.440000000000005
   109   1  7.1054273576010019e-15      15.680000000000009      25.480000000000004
   110   1  7.1054273576010019e-15      13.720000000000008      31.360000000000003
   111   1  7.1054273576010019e-15      15.680000000000009      29.400000000000006
   112   1  7.1054273576010019e-15      13.720000000000008      35.280000000000008
   113   1  7.1054273576010019e-15      15.680000000000009      33.320000000000007
   114   1  7.1054273576010019e-15      13.720000000000008       39.20000000000001
   115   1  7.1054273576010019e-15      15.680000000000009      37.240000000000009
   116   1  7.1054273576010019e-15      13.720000000000008      43.120000000000005
   117   1  7.1054273576010019e-15      15.680000000000009      41.160000000000004
   118   1  7.1054273576010019e-15      13.720000000000008      47.040000000000006
   119   1  7.1054273576010019e-15      15.680000000000009      45.080000000000013
   120   1  7.1054273576010019e-15      13.720000000000008     0.96000000000000529
   121   1  7.1054273576010019e-15      15.680000000000009      49.000000000000007
   122   1  7.1054273576010019e-15      17.640000000000008  7.1054273576010019e-15
   123   1  7.1054273576010019e-15      17.640000000000008      3.9200000000000053
   124   1  7.1054273576010019e-15      19.600000000000009       1.960000000000008
   125   1  7.1054273576010019e-15      17.640000000000008       7.840000000000007
   126   1  7.1054273576010019e-15      19.600000000000009      5.8800000000000061
   127   1  7.1054273576010019e-15      17.640000000000008      11.760000000000005
   128   1  7.1054273576010019e-15      19.600000000000009       9.800000000000006
   129   1  7.1054273576010019e-15      17.640000000000008      15.680000000000009
   130   1  7.1054273576010019e-15      19.600000000000009      13.720000000000008
   131   1  7.1054273576010019e-15      17.640000000000008      19.600000000000009
   132   1  7.1054273576010019e-15      19.600000000000009      17.640000000000008
   133   1  7.1054273576010019e-15      17.640000000000008      23.520000000000007
   134   1  7.1054273576010019e-15      19.600000000000009      21.560000000000006
   135   1  7.1054273576010019e-15      17.640000000000008      27.440000000000005
   136   1  7.1054273576010019e-15      19.600000000000009      25.480000000000004
   137   1  7.1054273576010019e-15      17.640000000000008      31.360000000000003
   138   1  7.1054273576010019e-15      19.600000000000009      29.400000000000006
   139   1  7.1054273576010019e-15      17.640000000000008      35.280000000000008
   140   1  7.1054273576010019e-15      19.600000000000009      33.320000000000007
   141   1  7.1054273576010019e-15      17.640000000000008       39.20000000000001
   142   1  7.1054273576010019e-15      19.600000000000009      37.240000000000009
   143   1  7.1054273576010019e-15      17.640000000000008      43.120000000000005
   144   1  7.1054273576010019e-15      19.600000000000009      41.160000000000004
   145   1  7.1054273576010019e-15      17.640000000000008      47.040000000000006
   146   1  7.1054273576010019e-15      19.600000000000009      45.080000000000013
   147   1  7.1054273576010019e-15      17.640000000000008     0.96000000000000529
   148   1  7.1054273576010019e-15      19.600000000000009      49.000000000000007
   149   1  7.1054273576010019e-15      21.560000000000006  7.1054273576010019e-15
   150   1  7.1054273576010019e-15      21.560000000000006      3.9200000000000053
   151   1  7.1054273576010019e-15      23.520000000000007       1.960000000000008
   152   1  7.1054273576010019e-15      21.560000000000006       7.840000000000007
   153   1  7.1054273576010019e-15      23.520000000000007      5.8800000000000061
   154   1  7.1054273576010019e-15      21.560000000000006      11.760000000000005
   155   1  7.1054273576010019e-15      23.520000000000007       9.800000000000006
   156   1  7.1054273576010019e-15      21.560000000000006      15.680000000000009
   157   1  7.1054273576010019e-15      23.520000000000007      13.720000000000008
   158   1  7.1054273576010019e-15      21.560000000000006      19.600000000000009
   159   1  7.1054273576010019e-15      23.520000000000007      17.640000000000008
   160   1  7.1054273576010019e-15      21.560000000000006      23.520000000000007
   161   1  7.1054273576010019e-15      23.520000000000007      21.560000000000006
   162   1  7.1054273576010019e-15      21.560000000000006      27.440000000000005
   163   1  7.1054273576010019e-15      23.520000000000007      25.480000000000004
   164   1  7.1054273576010019e-15      21.560000000000006      31.360000000000003
   165   1  7.1054273576010019e-15      23.520000000000007      29.400000000000006
   166   1  7.1054273576010019e-15      21.560000000000006      35.280000000000008
   167   1  7.1054273576010019e-15      23.520000000000007      33.320000000000007
   168   1  7.1054273576010019e-15      21.560000000000006       39.20000000000001
   169   1  7.1054273576010019e-15      23.520000000000007      37.240000000000009
   170   1  7.1054273576010019e-15      21.560000000000006      43.120000000000005
   171   1  7.1054273576010019e-15      23.520000000000007      41.160000000000004
   172   1  7.1054273576010019e-15      21.560000000000006      47.040000000000006
   173   1  7.1054273576010019e-15      23.520000000000007      45.080000000000013
   174   1  7.1054273576010019e-15      21.560000000000006     0.96000000000000529
   175   1  7.1054273576010019e-15      23.520000000000007      49.000000000000007
   176   1  7.1054273576010019e-15      25.480000000000004  7.1054273576010019e-15
   177   1  7.1054273576010019e-15      25.480000000000004      3.9200000000000053
   178   1  7.1054273576010019e-15      27.440000000000005       1.960000000000008
   179   1  7.1054273576010019e-15      25.480000000000004       7.840000000000007
   180   1  7.1054273576010019e-15      27.440000000000005      5.8800000000000061
   181   1  7.1054273576010019e-15      25.480000000000004      11.760000000000005
   182   1  7.1054273576010019e-15      27.440000000000005       9.800000000000006
   183   1  7.1054273576010019e-15      25.480000000000004      15.680000000000009
   184   1  7.1054273576010019e-15      27.440000000000005      13.720000000000008
   185   1  7.1054273576010019e-15      25.480000000000004      19.600000000000009
   186   1  7.1054273576010019e-15      27.440000000000005      17.640000000000008
   187   1  7.1054273576010019e-15      25.480000000000004      23.520000000000007
   188   1  7.1054273576010019e-15      27.440000000000005      21.560000000000006
   189   1  7.1054273576010019e-15      25.480000000000004      27.440000000000005
   190   1  7.1054273576010019e-15      27.440000000000005      25.480000000000004
   191   1  7.1054273576010019e-15      25.480000000000004      31.360000000000003
   192   1  7.1054273576010019e-15      27.440000000000005      29.400000000000006
   193   1  7.1054273576010019e-15      25.480000000000004      35.280000000000008
   194   1  7.1054273576010019e-15      27.440000000000005      33.320000000000007
   195   1  7.1054273576010019e-15      25.480000000000004       39.20000000000001
   196   1  7.1054273576010019e-15      27.440000000000005      37.240000000000009
   197   1  7.1054273576010019e-15      25.480000000000004      43.120000000000005
   198   1  7.1054273576010019e-15      27.440000000000005      41.160000000000004
   199   1  7.1054273576010019e-15      25.480000000000004      47.040000000000006
   200   1  7.1054273576010019e-15      27.440000000000005      45.080000000000013
   201   1  7.1054273576010019e-15      25.480000000000004     0.96000000000000529
   202   1  7.1054273576010019e-15      27.440000000000005      49.000000000000007
   203   1  7.1054273576010019e-15      29.400000000000006  7.1054273576010019e-15
   204   1  7.1054273576010019e-15      29.400000000000006      3.9200000000000053
   205   1  7.1054273576010019e-15      31.360000000000003       1.960000000000008
   206   1  7.1054273576010019e-15      29.400000000000006       7.840000000000007
   207   1  7.1054273576010019e-15      31.360000000000003      5.8800000000000061
   208   1  7.1054273576010019e-15      29.400000000000006      11.760000000000005
   209   1  7.1054273576010019e-15      31.360000000000003       9.800000000000006
   210   1  7.1054273576010019e-15      29.400000000000006      15.680000000000009
   211   1  7.1054273576010019e-15      31.360000000000003      13.720000000000008
   212   1  7.1054273576010019e-15      29.400000000000006      19.600000000000009
   213   1  7.1054273576010019e-15      31.360000000000003      17.640000000000008
   214   1  7.1054273576010019e-15      29.400000000000006      23.520000000000007
   215   1  7.1054273576010019e-15      31.360000000000003      21.560000000000006
   216   1  7.1054273576010019e-15      29.400000000000006      27.440000000000005
   217   1  7.1054273576010019e-15      31.360000000000003      25.480000000000004
   218   1  7.1054273576010019e-15      29.400000000000006      31.360000000000003
   219   1  7.1054273576010019e-15      31.360000000000003      29.400000000000006
   220   1  7.1054273576010019e-15      29.400000000000006      35.280000000000008
   221   1  7.1054273576010019e-15      31.360000000000003      33.320000000000007
   222   1  7.1054273576010019e-15      29.400000000000006       39.20000000000001
   223   1  7.1054273576010019e-15      31.360000000000003      37.240000000000009
   224   1  7.1054273576010019e-15      29.400000000000006      43.120000000000005
   225   1  7.1054273576010019e-15      31.360000000000003      41.160000000000004
   226   1  7.1054273576010019e-15      29.400000000000006      47.040000000000006
   227   1  7.1054273576010019e-15      31.360000000000003      45.080000000000013
   228   1  7.1054273576010019e-15      29.400000000000006     0.96000000000000529
   229   1  7.1054273576010019e-15      31.360000000000003      49.000000000000007
   230   1  7.1054273576010019e-15      33.320000000000007  7.1054273576010019e-15
   231   1  7.1054273576010019e-15      33.320000000000007      3.9200000000000053
   232   1  7.1054273576010019e-15      35.280000000000008       1.960000000000008
   233   1  7.1054273576010019e-15      33.320000000000007       7.840000000000007
   234   1  7.1054273576010019e-15      35.280000000000008      5.8800000000000061
   235   1  7.1054273576010019e-15      33.320000000000007      11.760000000000005
   236   1  7.1054273576010019e-15      35.280000000000008       9.800000000000006
   237   1  7.1054273576010019e-15      33.320000000000007      15.680000000000009
   238   1  7.1054273576010019e-15      35.280000000000008      13.720000000000008
   239   1  7.1054273576010019e-15      33.320000000000007      19.600000000000009
   240   1  7.1054273576010019e-15      35.280000000000008      17.640000000000008
   241   1  7.1054273576010019e-15      33.320000000000007      23.520000000000007
   242   1  7.1054273576010019e-15      35.280000000000008      21.560000000000006
   243   1  7.1054273576010019e-15      33.320000000000007      27.440000000000005
   244   1  7.1054273576010019e-15      35.280000000000008      25.480000000000004
   245   1  7.1054273576010019e-15      33.320000000000007      31.360000000000003
   246   1  7.1054273576010019e-15      35.280000000000008      29.400000000000006
   247   1  7.1054273576010019e-15      33.320000000000007      35.280000000000008
   248   1  7.1054273576010019e-15      35.280000000000008      33.320000000000007
   249   1  7.1054273576010019e-15      33.320000000000007       39.20000000000001
   250   1  7.1054273576010019e-15      35.280000000000008      37.240000000000009
   251   1  7.1054273576010019e-15      33.320000000000007      43.120000000000005
   252   1  7.1054273576010019e-15      35.280000000000008      41.160000000000004
   253   1  7.1054273576010019e-15      33.320000000000007      47.040000000000006
   254   1  7.1054273576010019e-15      35.280000000000008      45.080000000000013
   255   1  7.1054273576010019e-15      33.320000000000007     0.96000000000000529
   256   1  7.1054273576010019e-15      35.280000000000008      49.000000000000007
   257   1  7.1054273576010019e-15      37.240000000000009  7.1054273576010019e-15
   258   1  7.1054273576010019e-15      37.240000000000009      3.9200000000000053
   259   1  7.1054273576010019e-15       39.20000000000001       1.960000000000008
   260   1  7.1054273576010019e-15      37.240000000000009       7.840000000000007
   261   1  7.1054273576010019e-15       39.20000000000001      5.8800000000000061
   262   1  7.1054273576010019e-15      37.240000000000009      11.760000000000005
   263   1  7.1054273576010019e-15       39.20000000000001       9.800000000000006
   264   1  7.1054273576010019e-15      37.240000000000009      15.680000000000009
   265   1  7.1054273576010019e-15       39.20000000000001      13.720000000000008
   266   1  7.1054273576010019e-15      37.240000000000009      19.600000000000009
   267   1  7.1054273576010019e-15       39.20000000000001      17.640000000000008
   268   1  7.1054273576010019e-15      37.240000000000009      23.520000000000007
   269   1  7.1054273576010019e-15       39.20000000000001      21.560000000000006
   270   1  7.1054273576010019e-15      37.240000000000009      27.440000000000005
   271   1  7.1054273576010019e-15       39.20000000000001      25.480000000000004
   272   1  7.1054273576010019e-15      37.240000000000009      31.360000000000003
   273   1  7.1054273576010019e-15       39.20000000000001      29.400000000000006
   274   1  7.1054273576010019e-15      37.240000000000009      35.280000000000008
   275   1  7.1054273576010019e-15       39.20000000000001      33.320000000000007
   276   1  7.1054273576010019e-15      37.240000000000009       39.20000000000001
   277   1  7.1054273576010019e-15       39.20000000000001      37.240000000000009
   278   1  7.1054273576010019e-15      37.240000000000009      43.120000000000005
   279   1  7.1054273576010019e-15       39.20000000000001      41.160000000000004
   280   1  7.1054273576010019e-15      37.240000000000009      47.040000000000006
   281   1  7.1054273576010019e-15       39.20000000000001      45.080000000000013
   282   1  7.1054273576010019e-15      37.240000000000009     0.96000000000000529
   283   1  7.1054273576010019e-15       39.20000000000001      49.000000000000007
   284   1  7.1054273576010019e-15      41.160000000000004  7.1054273576010019e-15
   285   1  7.1054273576010019e-15      41.160000000000004      3.9200000000000053
   286   1  7.1054273576010019e-15      43.120000000000005       1.960000000000008
   287   1  7.1054273576010019e-15      41.160000000000004       7.840000000000007
   288   1  7.1054273576010019e-15      43.120000000000005      5.8800000000000061
   289   1  7.1054273576010019e-15      41.160000000000004      11.760000000000005
   290   1  7.1054273576010019e-15      43.120000000000005       9.800000000000006
   291   1  7.1054273576010019e-15      41.160000000000004      15.680000000000009
   292   1  7.1054273576010019e-15      43.120000000000005      13.720000000000008
   293   1  7.1054273576010019e-15      41.160000000000004      19.600000000000009
   294   1  7.1054273576010019e-15      43.120000000000005      17.640000000000008
   295   1  7.1054273576010019e-15      41.160000000000004      23.520000000000007
   296   1  7.1054273576010019e-15      43.120000000000005      21.560000000000006
   297   1  7.1054273576010019e-15      41.160000000000004      27.440000000000005
   298   1  7.1054273576010019e-15      43.120000000000005      25.480000000000004
   299   1  7.1054273576010019e-15      41.160000000000004      31.360000000000003
   300   1  7.1054273576010019e-15      43.120000000000005      29.400000000000006
   301   1  7.1054273576010019e-15      41.160000000000004      35.280000000000008
   302   1  7.1054273576010019e-15      43.120000000000005      33.320000000000007
   303   1  7.1054273576010019e-15      41.160000000000004       39.20000000000001
   304   1  7.1054273576010019e-15      43.120000000000005      37.240000000000009
   305   1  7.1054273576010019e-15      41.160000000000004      43.120000000000005
   306   1  7.1054273576010019e-15      43.120000000000005      41.160000000000004
   307   1  7.1054273576010019e-15      41.160000000000004      47.040000000000006
   308   1  7.1054273576010019e-15      43.120000000000005      45.080000000000013
   309   1  7.1054273576010019e-15      41.160000000000004     0.96000000000000529
   310   1  7.1054273576010019e-15      43.120000000000005      49.000000000000007
   311   1  7.1054273576010019e-15      45.080000000000013  7.1054273576010019e-15
   312   1  7.1054273576010019e-15      45.080000000000013      3.9200000000000053
   313   1  7.1054273576010019e-15      47.040000000000006       1.960000000000008
   314   1  7.1054273576010019e-15      45.080000000000013       7.840000000000007
   315   1  7.1054273576010019e-15      47.040000000000006      5.8800000000000061
   316   1  7.1054273576010019e-15      45.080000000000013      11.760000000000005
   317   1  7.1054273576010019e-15      47.040000000000006       9.800000000000006
   318   1  7.1054273576010019e-15      45.080000000000013      15.680000000000009
   319   1  7.1054273576010019e-15      47.040000000000006      13.720000000000008
   320   1  7.1054273576010019e-15      45.080000000000013      19.600000000000009
   321   1  7.1054273576010019e-15      47.040000000000006      17.640000000000008
   322   1  7.1054273576010019e-15      45.080000000000013      23.520000000000007
   323   1  7.1054273576010019e-15      47.040000000000006      21.560000000000006
   324   1  7.1054273576010019e-15      45.080000000000013      27.440000000000005
   325   1  7.1054273576010019e-15      47.040000000000006      25.480000000000004
   326   1  7.1054273576010019e-15      45.080000000000013      31.360000000000003
   327   1  7.1054273576010019e-15      47.040000000000006      29.400000000000006
   328   1  7.1054273576010019e-15      45.080000000000013      35.280000000000008
   329   1  7.1054273576010019e-15      47.040000000000006      33.320000000000007
   330   1  7.1054273576010019e-15      45.080000000000013       39.20000000000001
   331   1  7.1054273576010019e-15      47.040000000000006      37.240000000000009
   332   1  7.1054273576010019e-15      45.080000000000013      43.120000000000005
   333   1  7.1054273576010019e-15      47.040000000000006      41.160000000000004
   334   1  7.1054273576010019e-15      45.080000000000013      47.040000000000006
   335   1  7.1054273576010019e-15      47.040000000000006      45.080000000000013
   336   1  7.1054273576010019e-15      45.080000000000013     0.96000000000000529
   337   1  7.1054273576010019e-15      47.040000000000006      49.000000000000007
   338   1  7.1054273576010019e-15      49.000000000000007  7.1054273576010019e-15
   339   1  7.1054273576010019e-15      49.000000000000007      3.9200000000000053
   340   1  7.1054273576010019e-15     0.96000000000000529       1.960000000000008
   341   1  7.1054273576010019e-15      49.000000000000007       7.840000000000007
   342   1  7.1054273576010019e-15     0.96000000000000529      5.8800000000000061
   343   1  7.1054273576010019e-15      49.000000000000007      11.760000000000005
   344   1  7.1054273576010019e-15     0.96000000000000529       9.800000000000006
   345   1  7.1054273576010019e-15      49.000000000000007      15.680000000000009
   346   1  7.1054273576010019e-15     0.96000000000000529      13.720000000000008
   347   1  7.1054273576010019e-15      49.000000000000007      19.600000000000009
   348   1  7.1054273576010019e-15     0.96000000000000529      17.640000000000008
   349   1  7.1054273576010019e-15      49.000000000000007      23.520000000000007
   350   1  7.1054273576010019e-15     0.96000000000000529      21.560000000000006
   351   1  7.1054273576010019e-15      49.000000000000007      27.440000000000005
   352   1  7.1054273576010019e-15     0.96000000000000529      25.480000000000004
   353   1  7.1054273576010019e-15      49.000000000000007      31.360000000000003
   354   1  7.1054273576010019e-15     0.96000000000000529      29.400000000000006
   355   1  7.1054273576010019e-15      49.000000000000007      35.280000000000008
   356   1  7.1054273576010019e-15     0.96000000000000529      33.320000000000007
   357   1  7.1054273576010019e-15      49.000000000000007       39.20000000000001
   358   1  7.1054273576010019e-15     0.96000000000000529      37.240000000000009