model_files/CuFeNi/CuFeNi_30000/CuFeNi_541/CuFeNi_541_fcc_30387_temp.data (written by ASE) 

30387 	 atoms 
3  atom types
0.0                     109  xlo xhi
0.0                     109  ylo yhi
0.0                     109  zlo zhi


Atoms 

     1   1      1.7899999999999991      51.910000000000011      53.700000000000003
     2   1      1.7899999999999991      53.700000000000003      51.910000000000011
     3   1                       0      53.700000000000003      53.700000000000003
     4   1      1.7899999999999991      53.700000000000003      55.490000000000002
     5   1      1.7899999999999991      55.490000000000002      53.700000000000003
     6   1      5.3699999999999974      48.329999999999998      50.120000000000012
     7   1      5.3699999999999974      48.329999999999998      53.700000000000003
     8   1      5.3699999999999974      48.329999999999998      57.280000000000008
     9   1      5.3699999999999974      50.120000000000012      48.329999999999998
    10   1      3.5799999999999983      50.120000000000012      50.120000000000012
    11   1      3.5799999999999983      51.910000000000011      51.910000000000011
    12   1      5.3699999999999974      50.120000000000012      51.910000000000011
    13   1      5.3699999999999974      51.910000000000011      50.120000000000012
    14   1      3.5799999999999983      50.120000000000012      53.700000000000003
    15   1      3.5799999999999983      51.910000000000011      55.490000000000002
    16   1      5.3699999999999974      50.120000000000012      55.490000000000002
    17   1      5.3699999999999974      51.910000000000011      53.700000000000003
    18   1      3.5799999999999983      50.120000000000012      57.280000000000008
    19   1      5.3699999999999974      50.120000000000012                   59.07
    20   1      5.3699999999999974      51.910000000000011      57.280000000000008
    21   1      5.3699999999999974      53.700000000000003      48.329999999999998
    22   1      3.5799999999999983      53.700000000000003      50.120000000000012
    23   1      3.5799999999999983      55.490000000000002      51.910000000000011
    24   1      5.3699999999999974      53.700000000000003      51.910000000000011
    25   1      5.3699999999999974      55.490000000000002      50.120000000000012
    26   1      3.5799999999999983      53.700000000000003      53.700000000000003
    27   1      3.5799999999999983      55.490000000000002      55.490000000000002
    28   1      5.3699999999999974      53.700000000000003      55.490000000000002
    29   1      5.3699999999999974      55.490000000000002      53.700000000000003
    30   1      3.5799999999999983      53.700000000000003      57.280000000000008
    31   1      5.3699999999999974      53.700000000000003                   59.07
    32   1      5.3699999999999974      55.490000000000002      57.280000000000008
    33   1      5.3699999999999974      57.280000000000008      48.329999999999998
    34   1      3.5799999999999983      57.280000000000008      50.120000000000012
    35   1      5.3699999999999974      57.280000000000008      51.910000000000011
    36   1      5.3699999999999974                   59.07      50.120000000000012
    37   1      3.5799999999999983      57.280000000000008      53.700000000000003
    38   1      5.3699999999999974      57.280000000000008      55.490000000000002
    39   1      5.3699999999999974                   59.07      53.700000000000003
    40   1      3.5799999999999983      57.280000000000008      57.280000000000008
    41   1      5.3699999999999974      57.280000000000008                   59.07
    42   1      5.3699999999999974                   59.07      57.280000000000008
    43   1      8.9500000000000028      44.750000000000007      46.539999999999999
    44   1      8.9500000000000028      42.960000000000008      51.910000000000011
    45   1      8.9500000000000028      44.750000000000007      50.120000000000012
    46   1      8.9500000000000028      42.960000000000008      55.490000000000002
    47   1      8.9500000000000028      44.750000000000007      53.700000000000003
    48   1      8.9500000000000028      44.750000000000007      57.280000000000008
    49   1      8.9500000000000028      44.750000000000007      60.860000000000007
    50   1      8.9500000000000028      46.539999999999999      44.750000000000007
    51   1      7.1599999999999966      46.539999999999999      46.539999999999999
    52   1      7.1599999999999966      48.329999999999998      48.329999999999998
    53   1      8.9500000000000028      46.539999999999999      48.329999999999998
    54   1      8.9500000000000028      48.329999999999998      46.539999999999999
    55   1      7.1599999999999966      46.539999999999999      50.120000000000012
    56   1      7.1599999999999966      48.329999999999998      51.910000000000011
    57   1      8.9500000000000028      46.539999999999999      51.910000000000011
    58   1      8.9500000000000028      48.329999999999998      50.120000000000012
    59   1      7.1599999999999966      46.539999999999999      53.700000000000003
    60   1      7.1599999999999966      48.329999999999998      55.490000000000002
    61   1      8.9500000000000028      46.539999999999999      55.490000000000002
    62   1      8.9500000000000028      48.329999999999998      53.700000000000003
    63   1      7.1599999999999966      46.539999999999999      57.280000000000008
    64   1      7.1599999999999966      48.329999999999998                   59.07
    65   1      8.9500000000000028      46.539999999999999                   59.07
    66   1      8.9500000000000028      48.329999999999998      57.280000000000008
    67   1      7.1599999999999966      46.539999999999999      60.860000000000007
    68   1      8.9500000000000028      46.539999999999999      62.650000000000006
    69   1      8.9500000000000028      48.329999999999998      60.860000000000007
    70   1      8.9500000000000028      50.120000000000012      44.750000000000007
    71   1      8.9500000000000028      51.910000000000011      42.960000000000008
    72   1      7.1599999999999966      50.120000000000012      46.539999999999999
    73   1      7.1599999999999966      51.910000000000011      48.329999999999998
    74   1      8.9500000000000028      50.120000000000012      48.329999999999998
    75   1      8.9500000000000028      51.910000000000011      46.539999999999999
    76   1      7.1599999999999966      50.120000000000012      50.120000000000012
    77   1      7.1599999999999966      51.910000000000011      51.910000000000011
    78   1      8.9500000000000028      50.120000000000012      51.910000000000011
    79   1      8.9500000000000028      51.910000000000011      50.120000000000012
    80   1      7.1599999999999966      50.120000000000012      53.700000000000003
    81   1      7.1599999999999966      51.910000000000011      55.490000000000002
    82   1      8.9500000000000028      50.120000000000012      55.490000000000002
    83   1      8.9500000000000028      51.910000000000011      53.700000000000003
    84   1      7.1599999999999966      50.120000000000012      57.280000000000008
    85   1      7.1599999999999966      51.910000000000011                   59.07
    86   1      8.9500000000000028      50.120000000000012                   59.07
    87   1      8.9500000000000028      51.910000000000011      57.280000000000008
    88   1      7.1599999999999966      50.120000000000012      60.860000000000007
    89   1      8.9500000000000028      50.120000000000012      62.650000000000006
    90   1      8.9500000000000028      51.910000000000011      60.860000000000007
    91   1      8.9500000000000028      51.910000000000011      64.439999999999998
    92   1      8.9500000000000028      53.700000000000003      44.750000000000007
    93   1      8.9500000000000028      55.490000000000002      42.960000000000008
    94   1      7.1599999999999966      53.700000000000003      46.539999999999999
    95   1      7.1599999999999966      55.490000000000002      48.329999999999998
    96   1      8.9500000000000028      53.700000000000003      48.329999999999998
    97   1      8.9500000000000028      55.490000000000002      46.539999999999999
    98   1      7.1599999999999966      53.700000000000003      50.120000000000012
    99   1      7.1599999999999966      55.490000000000002      51.910000000000011
   100   1      8.9500000000000028      53.700000000000003      51.910000000000011
   101   1      8.9500000000000028      55.490000000000002      50.120000000000012
   102   1      7.1599999999999966      53.700000000000003      53.700000000000003
   103   1      7.1599999999999966      55.490000000000002      55.490000000000002
   104   1      8.9500000000000028      53.700000000000003      55.490000000000002
   105   1      8.9500000000000028      55.490000000000002      53.700000000000003
   106   1      7.1599999999999966      53.700000000000003      57.280000000000008
   107   1      7.1599999999999966      55.490000000000002                   59.07
   108   1      8.9500000000000028      53.700000000000003                   59.07
   109   1      8.9500000000000028      55.490000000000002      57.280000000000008
   110   1      7.1599999999999966      53.700000000000003      60.860000000000007
   111   1      8.9500000000000028      53.700000000000003      62.650000000000006
   112   1      8.9500000000000028      55.490000000000002      60.860000000000007
   113   1      8.9500000000000028      55.490000000000002      64.439999999999998
   114   1      8.9500000000000028      57.280000000000008      44.750000000000007
   115   1      7.1599999999999966      57.280000000000008      46.539999999999999
   116   1      7.1599999999999966                   59.07      48.329999999999998
   117   1      8.9500000000000028      57.280000000000008      48.329999999999998
   118   1      8.9500000000000028                   59.07      46.539999999999999
   119   1      7.1599999999999966      57.280000000000008      50.120000000000012
   120   1      7.1599999999999966                   59.07      51.910000000000011
   121   1      8.9500000000000028      57.280000000000008      51.910000000000011
   122   1      8.9500000000000028                   59.07      50.120000000000012
   123   1      7.1599999999999966      57.280000000000008      53.700000000000003
   124   1      7.1599999999999966                   59.07      55.490000000000002
   125   1      8.9500000000000028      57.280000000000008      55.490000000000002
   126   1      8.9500000000000028                   59.07      53.700000000000003
   127   1      7.1599999999999966      57.280000000000008      57.280000000000008
   128   1      7.1599999999999966                   59.07                   59.07
   129   1      8.9500000000000028      57.280000000000008                   59.07
   130   1      8.9500000000000028                   59.07      57.280000000000008
   131   1      7.1599999999999966      57.280000000000008      60.860000000000007
   132   1      8.9500000000000028      57.280000000000008      62.650000000000006
   133   1      8.9500000000000028                   59.07      60.860000000000007
   134   1      8.9500000000000028      60.860000000000007      44.750000000000007
   135   1      7.1599999999999966      60.860000000000007      46.539999999999999
   136   1      8.9500000000000028      60.860000000000007      48.329999999999998
   137   1      8.9500000000000028      62.650000000000006      46.539999999999999
   138   1      7.1599999999999966      60.860000000000007      50.120000000000012
   139   1      8.9500000000000028      60.860000000000007      51.910000000000011
   140   1      8.9500000000000028      62.650000000000006      50.120000000000012
   141   1      7.1599999999999966      60.860000000000007      53.700000000000003
   142   1      8.9500000000000028      60.860000000000007      55.490000000000002
   143   1      8.9500000000000028      62.650000000000006      53.700000000000003
   144   1      7.1599999999999966      60.860000000000007      57.280000000000008
   145   1      8.9500000000000028      60.860000000000007                   59.07
   146   1      8.9500000000000028      62.650000000000006      57.280000000000008
   147   1      7.1599999999999966      60.860000000000007      60.860000000000007
   148   1      8.9500000000000028      60.860000000000007      62.650000000000006
   149   1      8.9500000000000028      62.650000000000006      60.860000000000007
   150   1      8.9500000000000028      64.439999999999998      51.910000000000011
   151   1      8.9500000000000028      64.439999999999998      55.490000000000002
   152   1      12.530000000000003      41.170000000000002      42.960000000000008
   153   1      12.530000000000003      39.380000000000003      48.329999999999998
   154   1      12.530000000000003      41.170000000000002      46.539999999999999
   155   1      10.740000000000004      41.170000000000002      51.910000000000011
   156   1      12.530000000000003      39.380000000000003      51.910000000000011
   157   1      12.530000000000003      41.170000000000002      50.120000000000012
   158   1      10.740000000000004      41.170000000000002      55.490000000000002
   159   1      12.530000000000003      39.380000000000003      55.490000000000002
   160   1      12.530000000000003      41.170000000000002      53.700000000000003
   161   1      12.530000000000003      39.380000000000003                   59.07
   162   1      12.530000000000003      41.170000000000002      57.280000000000008
   163   1      12.530000000000003      41.170000000000002      60.860000000000007
   164   1      12.530000000000003      41.170000000000002      64.439999999999998
   165   1      12.530000000000003      42.960000000000008      41.170000000000002
   166   1      10.740000000000004      42.960000000000008      42.960000000000008
   167   1      10.740000000000004      44.750000000000007      44.750000000000007
   168   1      12.530000000000003      42.960000000000008      44.750000000000007
   169   1      12.530000000000003      44.750000000000007      42.960000000000008
   170   1      10.740000000000004      42.960000000000008      46.539999999999999
   171   1      10.740000000000004      44.750000000000007      48.329999999999998
   172   1      12.530000000000003      42.960000000000008      48.329999999999998
   173   1      12.530000000000003      44.750000000000007      46.539999999999999
   174   1      10.740000000000004      42.960000000000008      50.120000000000012
   175   1      10.740000000000004      44.750000000000007      51.910000000000011
   176   1      12.530000000000003      42.960000000000008      51.910000000000011
   177   1      12.530000000000003      44.750000000000007      50.120000000000012
   178   1      10.740000000000004      42.960000000000008      53.700000000000003
   179   1      10.740000000000004      44.750000000000007      55.490000000000002
   180   1      12.530000000000003      42.960000000000008      55.490000000000002
   181   1      12.530000000000003      44.750000000000007      53.700000000000003
   182   1      10.740000000000004      42.960000000000008      57.280000000000008
   183   1      10.740000000000004      44.750000000000007                   59.07
   184   1      12.530000000000003      42.960000000000008                   59.07
   185   1      12.530000000000003      44.750000000000007      57.280000000000008
   186   1      10.740000000000004      42.960000000000008      60.860000000000007
   187   1      10.740000000000004      44.750000000000007      62.650000000000006
   188   1      12.530000000000003      42.960000000000008      62.650000000000006
   189   1      12.530000000000003      44.750000000000007      60.860000000000007
   190   1      10.740000000000004      42.960000000000008      64.439999999999998
   191   1      12.530000000000003      42.960000000000008      66.230000000000004
   192   1      12.530000000000003      44.750000000000007      64.439999999999998
   193   1      12.530000000000003      46.539999999999999      41.170000000000002
   194   1      12.530000000000003      48.329999999999998      39.380000000000003
   195   1      10.740000000000004      46.539999999999999      42.960000000000008
   196   1      10.740000000000004      48.329999999999998      44.750000000000007
   197   1      12.530000000000003      46.539999999999999      44.750000000000007
   198   1      12.530000000000003      48.329999999999998      42.960000000000008
   199   1      10.740000000000004      46.539999999999999      46.539999999999999
   200   1      10.740000000000004      48.329999999999998      48.329999999999998
   201   1      12.530000000000003      46.539999999999999      48.329999999999998
   202   1      12.530000000000003      48.329999999999998      46.539999999999999
   203   1      10.740000000000004      46.539999999999999      50.120000000000012
   204   1      10.740000000000004      48.329999999999998      51.910000000000011
   205   1      12.530000000000003      46.539999999999999      51.910000000000011
   206   1      12.530000000000003      48.329999999999998      50.120000000000012
   207   1      10.740000000000004      46.539999999999999      53.700000000000003
   208   1      10.740000000000004      48.329999999999998      55.490000000000002
   209   1      12.530000000000003      46.539999999999999      55.490000000000002
   210   1      12.530000000000003      48.329999999999998      53.700000000000003
   211   1      10.740000000000004      46.539999999999999      57.280000000000008
   212   1      10.740000000000004      48.329999999999998                   59.07
   213   1      12.530000000000003      46.539999999999999                   59.07
   214   1      12.530000000000003      48.329999999999998      57.280000000000008
   215   1      10.740000000000004      46.539999999999999      60.860000000000007
   216   1      10.740000000000004      48.329999999999998      62.650000000000006
   217   1      12.530000000000003      46.539999999999999      62.650000000000006
   218   1      12.530000000000003      48.329999999999998      60.860000000000007
   219   1      10.740000000000004      46.539999999999999      64.439999999999998
   220   1      12.530000000000003      46.539999999999999      66.230000000000004
   221   1      12.530000000000003      48.329999999999998      64.439999999999998
   222   1      12.530000000000003      48.329999999999998      68.019999999999996
   223   1      10.740000000000004      51.910000000000011      41.170000000000002
   224   1      12.530000000000003      50.120000000000012      41.170000000000002
   225   1      12.530000000000003      51.910000000000011      39.380000000000003
   226   1      10.740000000000004      50.120000000000012      42.960000000000008
   227   1      10.740000000000004      51.910000000000011      44.750000000000007
   228   1      12.530000000000003      50.120000000000012      44.750000000000007
   229   1      12.530000000000003      51.910000000000011      42.960000000000008
   230   1      10.740000000000004      50.120000000000012      46.539999999999999
   231   1      10.740000000000004      51.910000000000011      48.329999999999998
   232   1      12.530000000000003      50.120000000000012      48.329999999999998
   233   1      12.530000000000003      51.910000000000011      46.539999999999999
   234   1      10.740000000000004      50.120000000000012      50.120000000000012
   235   1      10.740000000000004      51.910000000000011      51.910000000000011
   236   1      12.530000000000003      50.120000000000012      51.910000000000011
   237   1      12.530000000000003      51.910000000000011      50.120000000000012
   238   1      10.740000000000004      50.120000000000012      53.700000000000003
   239   1      10.740000000000004      51.910000000000011      55.490000000000002
   240   1      12.530000000000003      50.120000000000012      55.490000000000002
   241   1      12.530000000000003      51.910000000000011      53.700000000000003
   242   1      10.740000000000004      50.120000000000012      57.280000000000008
   243   1      10.740000000000004      51.910000000000011                   59.07
   244   1      12.530000000000003      50.120000000000012                   59.07
   245   1      12.530000000000003      51.910000000000011      57.280000000000008
   246   1      10.740000000000004      50.120000000000012      60.860000000000007
   247   1      10.740000000000004      51.910000000000011      62.650000000000006
   248   1      12.530000000000003      50.120000000000012      62.650000000000006
   249   1      12.530000000000003      51.910000000000011      60.860000000000007
   250   1      10.740000000000004      50.120000000000012      64.439999999999998
   251   1      10.740000000000004      51.910000000000011      66.230000000000004
   252   1      12.530000000000003      50.120000000000012      66.230000000000004
   253   1      12.530000000000003      51.910000000000011      64.439999999999998
   254   1      12.530000000000003      51.910000000000011      68.019999999999996
   255   1      10.740000000000004      55.490000000000002      41.170000000000002
   256   1      12.530000000000003      53.700000000000003      41.170000000000002
   257   1      12.530000000000003      55.490000000000002      39.380000000000003
   258   1      10.740000000000004      53.700000000000003      42.960000000000008
   259   1      10.740000000000004      55.490000000000002      44.750000000000007
   260   1      12.530000000000003      53.700000000000003      44.750000000000007
   261   1      12.530000000000003      55.490000000000002      42.960000000000008
   262   1      10.740000000000004      53.700000000000003      46.539999999999999
   263   1      10.740000000000004      55.490000000000002      48.329999999999998
   264   1      12.530000000000003      53.700000000000003      48.329999999999998
   265   1      12.530000000000003      55.490000000000002      46.539999999999999
   266   1      10.740000000000004      53.700000000000003      50.120000000000012
   267   1      10.740000000000004      55.490000000000002      51.910000000000011
   268   1      12.530000000000003      53.700000000000003      51.910000000000011
   269   1      12.530000000000003      55.490000000000002      50.120000000000012
   270   1      10.740000000000004      53.700000000000003      53.700000000000003
   271   1      10.740000000000004      55.490000000000002      55.490000000000002
   272   1      12.530000000000003      53.700000000000003      55.490000000000002
   273   1      12.530000000000003      55.490000000000002      53.700000000000003
   274   1      10.740000000000004      53.700000000000003      57.280000000000008
   275   1      10.740000000000004      55.490000000000002                   59.07
   276   1      12.530000000000003      53.700000000000003                   59.07
   277   1      12.530000000000003      55.490000000000002      57.280000000000008
   278   1      10.740000000000004      53.700000000000003      60.860000000000007
   279   1      10.740000000000004      55.490000000000002      62.650000000000006
   280   1      12.530000000000003      53.700000000000003      62.650000000000006
   281   1      12.530000000000003      55.490000000000002      60.860000000000007
   282   1      10.740000000000004      53.700000000000003      64.439999999999998
   283   1      10.740000000000004      55.490000000000002      66.230000000000004
   284   1      12.530000000000003      53.700000000000003      66.230000000000004
   285   1      12.530000000000003      55.490000000000002      64.439999999999998
   286   1      12.530000000000003      55.490000000000002      68.019999999999996
   287   1      12.530000000000003      57.280000000000008      41.170000000000002
   288   1      12.530000000000003                   59.07      39.380000000000003
   289   1      10.740000000000004      57.280000000000008      42.960000000000008
   290   1      10.740000000000004                   59.07      44.750000000000007
   291   1      12.530000000000003      57.280000000000008      44.750000000000007
   292   1      12.530000000000003                   59.07      42.960000000000008
   293   1      10.740000000000004      57.280000000000008      46.539999999999999
   294   1      10.740000000000004                   59.07      48.329999999999998
   295   1      12.530000000000003      57.280000000000008      48.329999999999998
   296   1      12.530000000000003                   59.07      46.539999999999999
   297   1      10.740000000000004      57.280000000000008      50.120000000000012
   298   1      10.740000000000004                   59.07      51.910000000000011
   299   1      12.530000000000003      57.280000000000008      51.910000000000011
   300   1      12.530000000000003                   59.07      50.120000000000012
   301   1      10.740000000000004      57.280000000000008      53.700000000000003
   302   1      10.740000000000004                   59.07      55.490000000000002
   303   1      12.530000000000003      57.280000000000008      55.490000000000002
   304   1      12.530000000000003                   59.07      53.700000000000003
   305   1      10.740000000000004      57.280000000000008      57.280000000000008
   306   1      10.740000000000004                   59.07                   59.07
   307   1      12.530000000000003      57.280000000000008                   59.07
   308   1      12.530000000000003                   59.07      57.280000000000008
   309   1      10.740000000000004      57.280000000000008      60.860000000000007
   310   1      10.740000000000004                   59.07      62.650000000000006
   311   1      12.530000000000003      57.280000000000008      62.650000000000006
   312   1      12.530000000000003                   59.07      60.860000000000007
   313   1      10.740000000000004      57.280000000000008      64.439999999999998
   314   1      12.530000000000003      57.280000000000008      66.230000000000004
   315   1      12.530000000000003                   59.07      64.439999999999998
   316   1      12.530000000000003                   59.07      68.019999999999996
   317   1      12.530000000000003      60.860000000000007      41.170000000000002
   318   1      10.740000000000004      60.860000000000007      42.960000000000008
   319   1      10.740000000000004      62.650000000000006      44.750000000000007
   320   1      12.530000000000003      60.860000000000007      44.750000000000007
   321   1      12.530000000000003      62.650000000000006      42.960000000000008
   322   1      10.740000000000004      60.860000000000007      46.539999999999999
   323   1      10.740000000000004      62.650000000000006      48.329999999999998
   324   1      12.530000000000003      60.860000000000007      48.329999999999998
   325   1      12.530000000000003      62.650000000000006      46.539999999999999
   326   1      10.740000000000004      60.860000000000007      50.120000000000012
   327   1      10.740000000000004      62.650000000000006      51.910000000000011
   328   1      12.530000000000003      60.860000000000007      51.910000000000011
   329   1      12.530000000000003      62.650000000000006      50.120000000000012
   330   1      10.740000000000004      60.860000000000007      53.700000000000003
   331   1      10.740000000000004      62.650000000000006      55.490000000000002
   332   1      12.530000000000003      60.860000000000007      55.490000000000002
   333   1      12.530000000000003      62.650000000000006      53.700000000000003
   334   1      10.740000000000004      60.860000000000007      57.280000000000008
   335   1      10.740000000000004      62.650000000000006                   59.07
   336   1      12.530000000000003      60.860000000000007                   59.07
   337   1      12.530000000000003      62.650000000000006      57.280000000000008
   338   1      10.740000000000004      60.860000000000007      60.860000000000007
   339   1      10.740000000000004      62.650000000000006      62.650000000000006
   340   1      12.530000000000003      60.860000000000007      62.650000000000006
   341   1      12.530000000000003      62.650000000000006      60.860000000000007
   342   1      10.740000000000004      60.860000000000007      64.439999999999998
   343   1      12.530000000000003      60.860000000000007      66.230000000000004
   344   1      12.530000000000003      62.650000000000006      64.439999999999998
   345   1      12.530000000000003      64.439999999999998      41.170000000000002
   346   1      10.740000000000004      64.439999999999998      42.960000000000008
   347   1      12.530000000000003      64.439999999999998      44.750000000000007
   348   1      12.530000000000003      66.230000000000004      42.960000000000008
   349   1      10.740000000000004      64.439999999999998      46.539999999999999
   350   1      12.530000000000003      64.439999999999998      48.329999999999998
   351   1      12.530000000000003      66.230000000000004      46.539999999999999
   352   1      10.740000000000004      64.439999999999998      50.120000000000012
   353   1      10.740000000000004      66.230000000000004      51.910000000000011
   354   1      12.530000000000003      64.439999999999998      51.910000000000011
   355   1      12.530000000000003      66.230000000000004      50.120000000000012
   356   1      10.740000000000004      64.439999999999998      53.700000000000003
   357   1      10.740000000000004      66.230000000000004      55.490000000000002
   358   1      12.530000000000003      64.439999999999998      55.490000000000002