model_files/CuAu/CuAu_30000/CuAu_542/CuAu_542_fcc_29823_temp.data (written by ASE) 

29823 	 atoms 
2  atom types
0.0                     112  xlo xhi
0.0                     112  ylo yhi
0.0                     112  zlo zhi


Atoms 

     1   1      1.8700000000000045      54.230000000000004      56.100000000000001
     2   1      1.8700000000000045      56.100000000000001      54.230000000000004
     3   1  7.1054273576010019e-15      56.100000000000001      56.100000000000001
     4   1      1.8700000000000045      56.100000000000001      57.970000000000006
     5   1      1.8700000000000045      57.970000000000006      56.100000000000001
     6   1      3.7400000000000091      50.489999999999995      54.230000000000004
     7   1      5.6100000000000056      48.619999999999997      54.230000000000004
     8   1      5.6100000000000056      50.489999999999995      52.359999999999999
     9   1      3.7400000000000091      50.489999999999995      57.970000000000006
    10   1      5.6100000000000056      48.619999999999997      57.970000000000006
    11   1      5.6100000000000056      50.489999999999995      56.100000000000001
    12   1      5.6100000000000056      50.489999999999995      59.840000000000011
    13   1      3.7400000000000091      54.230000000000004      50.489999999999995
    14   1      5.6100000000000056      52.359999999999999      50.489999999999995
    15   1      5.6100000000000056      54.230000000000004      48.619999999999997
    16   1      3.7400000000000091      52.359999999999999      52.359999999999999
    17   1      3.7400000000000091      54.230000000000004      54.230000000000004
    18   1      5.6100000000000056      52.359999999999999      54.230000000000004
    19   1      5.6100000000000056      54.230000000000004      52.359999999999999
    20   1      3.7400000000000091      52.359999999999999      56.100000000000001
    21   1      3.7400000000000091      54.230000000000004      57.970000000000006
    22   1      5.6100000000000056      52.359999999999999      57.970000000000006
    23   1      5.6100000000000056      54.230000000000004      56.100000000000001
    24   1      3.7400000000000091      52.359999999999999      59.840000000000011
    25   1      3.7400000000000091      54.230000000000004      61.710000000000001
    26   1      5.6100000000000056      52.359999999999999      61.710000000000001
    27   1      5.6100000000000056      54.230000000000004      59.840000000000011
    28   1      5.6100000000000056      54.230000000000004      63.580000000000005
    29   1      3.7400000000000091      57.970000000000006      50.489999999999995
    30   1      5.6100000000000056      56.100000000000001      50.489999999999995
    31   1      5.6100000000000056      57.970000000000006      48.619999999999997
    32   1      3.7400000000000091      56.100000000000001      52.359999999999999
    33   1      3.7400000000000091      57.970000000000006      54.230000000000004
    34   1      5.6100000000000056      56.100000000000001      54.230000000000004
    35   1      5.6100000000000056      57.970000000000006      52.359999999999999
    36   1      3.7400000000000091      56.100000000000001      56.100000000000001
    37   1      3.7400000000000091      57.970000000000006      57.970000000000006
    38   1      5.6100000000000056      56.100000000000001      57.970000000000006
    39   1      5.6100000000000056      57.970000000000006      56.100000000000001
    40   1      3.7400000000000091      56.100000000000001      59.840000000000011
    41   1      3.7400000000000091      57.970000000000006      61.710000000000001
    42   1      5.6100000000000056      56.100000000000001      61.710000000000001
    43   1      5.6100000000000056      57.970000000000006      59.840000000000011
    44   1      5.6100000000000056      57.970000000000006      63.580000000000005
    45   1      5.6100000000000056      59.840000000000011      50.489999999999995
    46   1      3.7400000000000091      59.840000000000011      52.359999999999999
    47   1      3.7400000000000091      61.710000000000001      54.230000000000004
    48   1      5.6100000000000056      59.840000000000011      54.230000000000004
    49   1      5.6100000000000056      61.710000000000001      52.359999999999999
    50   1      3.7400000000000091      59.840000000000011      56.100000000000001
    51   1      3.7400000000000091      61.710000000000001      57.970000000000006
    52   1      5.6100000000000056      59.840000000000011      57.970000000000006
    53   1      5.6100000000000056      61.710000000000001      56.100000000000001
    54   1      3.7400000000000091      59.840000000000011      59.840000000000011
    55   1      5.6100000000000056      59.840000000000011      61.710000000000001
    56   1      5.6100000000000056      61.710000000000001      59.840000000000011
    57   1      5.6100000000000056      63.580000000000005      54.230000000000004
    58   1      5.6100000000000056      63.580000000000005      57.970000000000006
    59   1      9.3500000000000085      43.010000000000005      56.100000000000001
    60   1      9.3500000000000085                   46.75      48.619999999999997
    61   1       7.480000000000004                   46.75      54.230000000000004
    62   1      9.3500000000000085       44.88000000000001      54.230000000000004
    63   1      9.3500000000000085                   46.75      52.359999999999999
    64   1       7.480000000000004       44.88000000000001      56.100000000000001
    65   1       7.480000000000004                   46.75      57.970000000000006
    66   1      9.3500000000000085       44.88000000000001      57.970000000000006
    67   1      9.3500000000000085                   46.75      56.100000000000001
    68   1      9.3500000000000085                   46.75      59.840000000000011
    69   1      9.3500000000000085                   46.75      63.580000000000005
    70   1      9.3500000000000085      48.619999999999997                   46.75
    71   1       7.480000000000004      48.619999999999997      48.619999999999997
    72   1       7.480000000000004      50.489999999999995      50.489999999999995
    73   1      9.3500000000000085      48.619999999999997      50.489999999999995
    74   1      9.3500000000000085      50.489999999999995      48.619999999999997
    75   1       7.480000000000004      48.619999999999997      52.359999999999999
    76   1       7.480000000000004      50.489999999999995      54.230000000000004
    77   1      9.3500000000000085      48.619999999999997      54.230000000000004
    78   1      9.3500000000000085      50.489999999999995      52.359999999999999
    79   1       7.480000000000004      48.619999999999997      56.100000000000001
    80   1       7.480000000000004      50.489999999999995      57.970000000000006
    81   1      9.3500000000000085      48.619999999999997      57.970000000000006
    82   1      9.3500000000000085      50.489999999999995      56.100000000000001
    83   1       7.480000000000004      48.619999999999997      59.840000000000011
    84   1       7.480000000000004      50.489999999999995      61.710000000000001
    85   1      9.3500000000000085      48.619999999999997      61.710000000000001
    86   1      9.3500000000000085      50.489999999999995      59.840000000000011
    87   1       7.480000000000004      48.619999999999997      63.580000000000005
    88   1      9.3500000000000085      48.619999999999997      65.450000000000017
    89   1      9.3500000000000085      50.489999999999995      63.580000000000005
    90   1       7.480000000000004      54.230000000000004                   46.75
    91   1      9.3500000000000085      52.359999999999999                   46.75
    92   1      9.3500000000000085      54.230000000000004       44.88000000000001
    93   1       7.480000000000004      52.359999999999999      48.619999999999997
    94   1       7.480000000000004      54.230000000000004      50.489999999999995
    95   1      9.3500000000000085      52.359999999999999      50.489999999999995
    96   1      9.3500000000000085      54.230000000000004      48.619999999999997
    97   1       7.480000000000004      52.359999999999999      52.359999999999999
    98   1       7.480000000000004      54.230000000000004      54.230000000000004
    99   1      9.3500000000000085      52.359999999999999      54.230000000000004
   100   1      9.3500000000000085      54.230000000000004      52.359999999999999
   101   1       7.480000000000004      52.359999999999999      56.100000000000001
   102   1       7.480000000000004      54.230000000000004      57.970000000000006
   103   1      9.3500000000000085      52.359999999999999      57.970000000000006
   104   1      9.3500000000000085      54.230000000000004      56.100000000000001
   105   1       7.480000000000004      52.359999999999999      59.840000000000011
   106   1       7.480000000000004      54.230000000000004      61.710000000000001
   107   1      9.3500000000000085      52.359999999999999      61.710000000000001
   108   1      9.3500000000000085      54.230000000000004      59.840000000000011
   109   1       7.480000000000004      52.359999999999999      63.580000000000005
   110   1       7.480000000000004      54.230000000000004      65.450000000000017
   111   1      9.3500000000000085      52.359999999999999      65.450000000000017
   112   1      9.3500000000000085      54.230000000000004      63.580000000000005
   113   1      9.3500000000000085      54.230000000000004      67.320000000000007
   114   1      9.3500000000000085      56.100000000000001      43.010000000000005
   115   1       7.480000000000004      56.100000000000001       44.88000000000001
   116   1       7.480000000000004      57.970000000000006                   46.75
   117   1      9.3500000000000085      56.100000000000001                   46.75
   118   1      9.3500000000000085      57.970000000000006       44.88000000000001
   119   1       7.480000000000004      56.100000000000001      48.619999999999997
   120   1       7.480000000000004      57.970000000000006      50.489999999999995
   121   1      9.3500000000000085      56.100000000000001      50.489999999999995
   122   1      9.3500000000000085      57.970000000000006      48.619999999999997
   123   1       7.480000000000004      56.100000000000001      52.359999999999999
   124   1       7.480000000000004      57.970000000000006      54.230000000000004
   125   1      9.3500000000000085      56.100000000000001      54.230000000000004
   126   1      9.3500000000000085      57.970000000000006      52.359999999999999
   127   1       7.480000000000004      56.100000000000001      56.100000000000001
   128   1       7.480000000000004      57.970000000000006      57.970000000000006
   129   1      9.3500000000000085      56.100000000000001      57.970000000000006
   130   1      9.3500000000000085      57.970000000000006      56.100000000000001
   131   1       7.480000000000004      56.100000000000001      59.840000000000011
   132   1       7.480000000000004      57.970000000000006      61.710000000000001
   133   1      9.3500000000000085      56.100000000000001      61.710000000000001
   134   1      9.3500000000000085      57.970000000000006      59.840000000000011
   135   1       7.480000000000004      56.100000000000001      63.580000000000005
   136   1       7.480000000000004      57.970000000000006      65.450000000000017
   137   1      9.3500000000000085      56.100000000000001      65.450000000000017
   138   1      9.3500000000000085      57.970000000000006      63.580000000000005
   139   1       7.480000000000004      56.100000000000001      67.320000000000007
   140   1      9.3500000000000085      56.100000000000001      69.190000000000012
   141   1      9.3500000000000085      57.970000000000006      67.320000000000007
   142   1      9.3500000000000085      59.840000000000011                   46.75
   143   1       7.480000000000004      59.840000000000011      48.619999999999997
   144   1       7.480000000000004      61.710000000000001      50.489999999999995
   145   1      9.3500000000000085      59.840000000000011      50.489999999999995
   146   1      9.3500000000000085      61.710000000000001      48.619999999999997
   147   1       7.480000000000004      59.840000000000011      52.359999999999999
   148   1       7.480000000000004      61.710000000000001      54.230000000000004
   149   1      9.3500000000000085      59.840000000000011      54.230000000000004
   150   1      9.3500000000000085      61.710000000000001      52.359999999999999
   151   1       7.480000000000004      59.840000000000011      56.100000000000001
   152   1       7.480000000000004      61.710000000000001      57.970000000000006
   153   1      9.3500000000000085      59.840000000000011      57.970000000000006
   154   1      9.3500000000000085      61.710000000000001      56.100000000000001
   155   1       7.480000000000004      59.840000000000011      59.840000000000011
   156   1       7.480000000000004      61.710000000000001      61.710000000000001
   157   1      9.3500000000000085      59.840000000000011      61.710000000000001
   158   1      9.3500000000000085      61.710000000000001      59.840000000000011
   159   1       7.480000000000004      59.840000000000011      63.580000000000005
   160   1      9.3500000000000085      59.840000000000011      65.450000000000017
   161   1      9.3500000000000085      61.710000000000001      63.580000000000005
   162   1      9.3500000000000085      63.580000000000005                   46.75
   163   1       7.480000000000004      63.580000000000005      48.619999999999997
   164   1      9.3500000000000085      63.580000000000005      50.489999999999995
   165   1      9.3500000000000085      65.450000000000017      48.619999999999997
   166   1       7.480000000000004      63.580000000000005      52.359999999999999
   167   1       7.480000000000004      65.450000000000017      54.230000000000004
   168   1      9.3500000000000085      63.580000000000005      54.230000000000004
   169   1      9.3500000000000085      65.450000000000017      52.359999999999999
   170   1       7.480000000000004      63.580000000000005      56.100000000000001
   171   1       7.480000000000004      65.450000000000017      57.970000000000006
   172   1      9.3500000000000085      63.580000000000005      57.970000000000006
   173   1      9.3500000000000085      65.450000000000017      56.100000000000001
   174   1       7.480000000000004      63.580000000000005      59.840000000000011
   175   1      9.3500000000000085      63.580000000000005      61.710000000000001
   176   1      9.3500000000000085      65.450000000000017      59.840000000000011
   177   1       7.480000000000004      63.580000000000005      63.580000000000005
   178   1      9.3500000000000085      63.580000000000005      65.450000000000017
   179   1      9.3500000000000085      65.450000000000017      63.580000000000005
   180   1      9.3500000000000085      67.320000000000007      54.230000000000004
   181   1       7.480000000000004      67.320000000000007      56.100000000000001
   182   1      9.3500000000000085      67.320000000000007      57.970000000000006
   183   1      9.3500000000000085      69.190000000000012      56.100000000000001
   184   1      13.090000000000002      39.270000000000003      56.100000000000001
   185   1      11.220000000000006      43.010000000000005      50.489999999999995
   186   1      13.090000000000002      41.140000000000008      50.489999999999995
   187   1      13.090000000000002      43.010000000000005      48.619999999999997
   188   1      11.220000000000006      43.010000000000005      54.230000000000004
   189   1      13.090000000000002      41.140000000000008      54.230000000000004
   190   1      13.090000000000002      43.010000000000005      52.359999999999999
   191   1      11.220000000000006      41.140000000000008      56.100000000000001
   192   1      11.220000000000006      43.010000000000005      57.970000000000006
   193   1      13.090000000000002      41.140000000000008      57.970000000000006
   194   1      13.090000000000002      43.010000000000005      56.100000000000001
   195   1      11.220000000000006      43.010000000000005      61.710000000000001
   196   1      13.090000000000002      41.140000000000008      61.710000000000001
   197   1      13.090000000000002      43.010000000000005      59.840000000000011
   198   1      13.090000000000002      43.010000000000005      63.580000000000005
   199   1      11.220000000000006                   46.75                   46.75
   200   1      13.090000000000002       44.88000000000001                   46.75
   201   1      13.090000000000002                   46.75       44.88000000000001
   202   1      11.220000000000006       44.88000000000001      48.619999999999997
   203   1      11.220000000000006                   46.75      50.489999999999995
   204   1      13.090000000000002       44.88000000000001      50.489999999999995
   205   1      13.090000000000002                   46.75      48.619999999999997
   206   1      11.220000000000006       44.88000000000001      52.359999999999999
   207   1      11.220000000000006                   46.75      54.230000000000004
   208   1      13.090000000000002       44.88000000000001      54.230000000000004
   209   1      13.090000000000002                   46.75      52.359999999999999
   210   1      11.220000000000006       44.88000000000001      56.100000000000001
   211   1      11.220000000000006                   46.75      57.970000000000006
   212   1      13.090000000000002       44.88000000000001      57.970000000000006
   213   1      13.090000000000002                   46.75      56.100000000000001
   214   1      11.220000000000006       44.88000000000001      59.840000000000011
   215   1      11.220000000000006                   46.75      61.710000000000001
   216   1      13.090000000000002       44.88000000000001      61.710000000000001
   217   1      13.090000000000002                   46.75      59.840000000000011
   218   1      11.220000000000006       44.88000000000001      63.580000000000005
   219   1      11.220000000000006                   46.75      65.450000000000017
   220   1      13.090000000000002       44.88000000000001      65.450000000000017
   221   1      13.090000000000002                   46.75      63.580000000000005
   222   1      13.090000000000002                   46.75      67.320000000000007
   223   1      11.220000000000006      50.489999999999995      43.010000000000005
   224   1      13.090000000000002      48.619999999999997      43.010000000000005
   225   1      13.090000000000002      50.489999999999995      41.140000000000008
   226   1      11.220000000000006      48.619999999999997       44.88000000000001
   227   1      11.220000000000006      50.489999999999995                   46.75
   228   1      13.090000000000002      48.619999999999997                   46.75
   229   1      13.090000000000002      50.489999999999995       44.88000000000001
   230   1      11.220000000000006      48.619999999999997      48.619999999999997
   231   1      11.220000000000006      50.489999999999995      50.489999999999995
   232   1      13.090000000000002      48.619999999999997      50.489999999999995
   233   1      13.090000000000002      50.489999999999995      48.619999999999997
   234   1      11.220000000000006      48.619999999999997      52.359999999999999
   235   1      11.220000000000006      50.489999999999995      54.230000000000004
   236   1      13.090000000000002      48.619999999999997      54.230000000000004
   237   1      13.090000000000002      50.489999999999995      52.359999999999999
   238   1      11.220000000000006      48.619999999999997      56.100000000000001
   239   1      11.220000000000006      50.489999999999995      57.970000000000006
   240   1      13.090000000000002      48.619999999999997      57.970000000000006
   241   1      13.090000000000002      50.489999999999995      56.100000000000001
   242   1      11.220000000000006      48.619999999999997      59.840000000000011
   243   1      11.220000000000006      50.489999999999995      61.710000000000001
   244   1      13.090000000000002      48.619999999999997      61.710000000000001
   245   1      13.090000000000002      50.489999999999995      59.840000000000011
   246   1      11.220000000000006      48.619999999999997      63.580000000000005
   247   1      11.220000000000006      50.489999999999995      65.450000000000017
   248   1      13.090000000000002      48.619999999999997      65.450000000000017
   249   1      13.090000000000002      50.489999999999995      63.580000000000005
   250   1      11.220000000000006      48.619999999999997      67.320000000000007
   251   1      11.220000000000006      50.489999999999995      69.190000000000012
   252   1      13.090000000000002      48.619999999999997      69.190000000000012
   253   1      13.090000000000002      50.489999999999995      67.320000000000007
   254   1      13.090000000000002      50.489999999999995      71.060000000000016
   255   1      11.220000000000006      54.230000000000004      43.010000000000005
   256   1      13.090000000000002      52.359999999999999      43.010000000000005
   257   1      13.090000000000002      54.230000000000004      41.140000000000008
   258   1      11.220000000000006      52.359999999999999       44.88000000000001
   259   1      11.220000000000006      54.230000000000004                   46.75
   260   1      13.090000000000002      52.359999999999999                   46.75
   261   1      13.090000000000002      54.230000000000004       44.88000000000001
   262   1      11.220000000000006      52.359999999999999      48.619999999999997
   263   1      11.220000000000006      54.230000000000004      50.489999999999995
   264   1      13.090000000000002      52.359999999999999      50.489999999999995
   265   1      13.090000000000002      54.230000000000004      48.619999999999997
   266   1      11.220000000000006      52.359999999999999      52.359999999999999
   267   1      11.220000000000006      54.230000000000004      54.230000000000004
   268   1      13.090000000000002      52.359999999999999      54.230000000000004
   269   1      13.090000000000002      54.230000000000004      52.359999999999999
   270   1      11.220000000000006      52.359999999999999      56.100000000000001
   271   1      11.220000000000006      54.230000000000004      57.970000000000006
   272   1      13.090000000000002      52.359999999999999      57.970000000000006
   273   1      13.090000000000002      54.230000000000004      56.100000000000001
   274   1      11.220000000000006      52.359999999999999      59.840000000000011
   275   1      11.220000000000006      54.230000000000004      61.710000000000001
   276   1      13.090000000000002      52.359999999999999      61.710000000000001
   277   1      13.090000000000002      54.230000000000004      59.840000000000011
   278   1      11.220000000000006      52.359999999999999      63.580000000000005
   279   1      11.220000000000006      54.230000000000004      65.450000000000017
   280   1      13.090000000000002      52.359999999999999      65.450000000000017
   281   1      13.090000000000002      54.230000000000004      63.580000000000005
   282   1      11.220000000000006      52.359999999999999      67.320000000000007
   283   1      11.220000000000006      54.230000000000004      69.190000000000012
   284   1      13.090000000000002      52.359999999999999      69.190000000000012
   285   1      13.090000000000002      54.230000000000004      67.320000000000007
   286   1      13.090000000000002      54.230000000000004      71.060000000000016
   287   1      13.090000000000002      56.100000000000001      39.270000000000003
   288   1      11.220000000000006      56.100000000000001      41.140000000000008
   289   1      11.220000000000006      57.970000000000006      43.010000000000005
   290   1      13.090000000000002      56.100000000000001      43.010000000000005
   291   1      13.090000000000002      57.970000000000006      41.140000000000008
   292   1      11.220000000000006      56.100000000000001       44.88000000000001
   293   1      11.220000000000006      57.970000000000006                   46.75
   294   1      13.090000000000002      56.100000000000001                   46.75
   295   1      13.090000000000002      57.970000000000006       44.88000000000001
   296   1      11.220000000000006      56.100000000000001      48.619999999999997
   297   1      11.220000000000006      57.970000000000006      50.489999999999995
   298   1      13.090000000000002      56.100000000000001      50.489999999999995
   299   1      13.090000000000002      57.970000000000006      48.619999999999997
   300   1      11.220000000000006      56.100000000000001      52.359999999999999
   301   1      11.220000000000006      57.970000000000006      54.230000000000004
   302   1      13.090000000000002      56.100000000000001      54.230000000000004
   303   1      13.090000000000002      57.970000000000006      52.359999999999999
   304   1      11.220000000000006      56.100000000000001      56.100000000000001
   305   1      11.220000000000006      57.970000000000006      57.970000000000006
   306   1      13.090000000000002      56.100000000000001      57.970000000000006
   307   1      13.090000000000002      57.970000000000006      56.100000000000001
   308   1      11.220000000000006      56.100000000000001      59.840000000000011
   309   1      11.220000000000006      57.970000000000006      61.710000000000001
   310   1      13.090000000000002      56.100000000000001      61.710000000000001
   311   1      13.090000000000002      57.970000000000006      59.840000000000011
   312   1      11.220000000000006      56.100000000000001      63.580000000000005
   313   1      11.220000000000006      57.970000000000006      65.450000000000017
   314   1      13.090000000000002      56.100000000000001      65.450000000000017
   315   1      13.090000000000002      57.970000000000006      63.580000000000005
   316   1      11.220000000000006      56.100000000000001      67.320000000000007
   317   1      11.220000000000006      57.970000000000006      69.190000000000012
   318   1      13.090000000000002      56.100000000000001      69.190000000000012
   319   1      13.090000000000002      57.970000000000006      67.320000000000007
   320   1      11.220000000000006      56.100000000000001      71.060000000000016
   321   1      13.090000000000002      56.100000000000001      72.930000000000021
   322   1      13.090000000000002      57.970000000000006      71.060000000000016
   323   1      11.220000000000006      61.710000000000001      43.010000000000005
   324   1      13.090000000000002      59.840000000000011      43.010000000000005
   325   1      13.090000000000002      61.710000000000001      41.140000000000008
   326   1      11.220000000000006      59.840000000000011       44.88000000000001
   327   1      11.220000000000006      61.710000000000001                   46.75
   328   1      13.090000000000002      59.840000000000011                   46.75
   329   1      13.090000000000002      61.710000000000001       44.88000000000001
   330   1      11.220000000000006      59.840000000000011      48.619999999999997
   331   1      11.220000000000006      61.710000000000001      50.489999999999995
   332   1      13.090000000000002      59.840000000000011      50.489999999999995
   333   1      13.090000000000002      61.710000000000001      48.619999999999997
   334   1      11.220000000000006      59.840000000000011      52.359999999999999
   335   1      11.220000000000006      61.710000000000001      54.230000000000004
   336   1      13.090000000000002      59.840000000000011      54.230000000000004
   337   1      13.090000000000002      61.710000000000001      52.359999999999999
   338   1      11.220000000000006      59.840000000000011      56.100000000000001
   339   1      11.220000000000006      61.710000000000001      57.970000000000006
   340   1      13.090000000000002      59.840000000000011      57.970000000000006
   341   1      13.090000000000002      61.710000000000001      56.100000000000001
   342   1      11.220000000000006      59.840000000000011      59.840000000000011
   343   1      11.220000000000006      61.710000000000001      61.710000000000001
   344   1      13.090000000000002      59.840000000000011      61.710000000000001
   345   1      13.090000000000002      61.710000000000001      59.840000000000011
   346   1      11.220000000000006      59.840000000000011      63.580000000000005
   347   1      11.220000000000006      61.710000000000001      65.450000000000017
   348   1      13.090000000000002      59.840000000000011      65.450000000000017
   349   1      13.090000000000002      61.710000000000001      63.580000000000005
   350   1      11.220000000000006      59.840000000000011      67.320000000000007
   351   1      11.220000000000006      61.710000000000001      69.190000000000012
   352   1      13.090000000000002      59.840000000000011      69.190000000000012
   353   1      13.090000000000002      61.710000000000001      67.320000000000007
   354   1      13.090000000000002      61.710000000000001      71.060000000000016
   355   1      13.090000000000002      63.580000000000005      43.010000000000005
   356   1      11.220000000000006      63.580000000000005       44.88000000000001
   357   1      11.220000000000006      65.450000000000017                   46.75
   358   1      13.090000000000002      63.580000000000005                   46.75