model_files/CuAu/CuAu_30000/CuAu_311/CuAu_311_fcc_30453_temp.data (written by ASE) 

30453 	 atoms 
2  atom types
0.0                      95  xlo xhi
0.0                      95  ylo yhi
0.0                      95  zlo zhi


Atoms 

     1   1      94.999999999999986      44.879999999999995                   46.75
     2   1      94.999999999999986                   46.75      44.879999999999995
     3   1      94.999999999999986                   46.75       48.61999999999999
     4   1      94.999999999999986       48.61999999999999                   46.75
     5   1      3.7399999999999949      33.659999999999997                   46.75
     6   1      3.7399999999999949      35.530000000000001      44.879999999999995
     7   1      3.7399999999999949      37.399999999999999      43.009999999999998
     8   1      3.7399999999999949      35.530000000000001       48.61999999999999
     9   1      3.7399999999999949      37.399999999999999                   46.75
    10   1      3.7399999999999949      37.399999999999999      50.489999999999988
    11   1      3.7399999999999949      39.269999999999996      41.139999999999993
    12   1      3.7399999999999949      41.139999999999993      39.269999999999996
    13   1      1.8699999999999974      41.139999999999993      44.879999999999995
    14   1      3.7399999999999949      39.269999999999996      44.879999999999995
    15   1      3.7399999999999949      41.139999999999993      43.009999999999998
    16   1      1.8699999999999974      39.269999999999996                   46.75
    17   1      1.8699999999999974      41.139999999999993       48.61999999999999
    18   1      3.7399999999999949      39.269999999999996       48.61999999999999
    19   1      3.7399999999999949      41.139999999999993                   46.75
    20   1      3.7399999999999949      39.269999999999996      52.359999999999985
    21   1      3.7399999999999949      41.139999999999993      50.489999999999988
    22   1      3.7399999999999949      41.139999999999993       54.22999999999999
    23   1      3.7399999999999949      43.009999999999998      37.399999999999999
    24   1      3.7399999999999949      44.879999999999995      35.530000000000001
    25   1      1.8699999999999974      44.879999999999995      41.139999999999993
    26   1      3.7399999999999949      43.009999999999998      41.139999999999993
    27   1      3.7399999999999949      44.879999999999995      39.269999999999996
    28   1      1.8699999999999974      43.009999999999998      43.009999999999998
    29   1      1.8699999999999974      44.879999999999995      44.879999999999995
    30   1      3.7399999999999949      43.009999999999998      44.879999999999995
    31   1      3.7399999999999949      44.879999999999995      43.009999999999998
    32   1      1.8699999999999974      43.009999999999998                   46.75
    33   1      1.8699999999999974      44.879999999999995       48.61999999999999
    34   1      3.7399999999999949      43.009999999999998       48.61999999999999
    35   1      3.7399999999999949      44.879999999999995                   46.75
    36   1      1.8699999999999974      43.009999999999998      50.489999999999988
    37   1      1.8699999999999974      44.879999999999995      52.359999999999985
    38   1      3.7399999999999949      43.009999999999998      52.359999999999985
    39   1      3.7399999999999949      44.879999999999995      50.489999999999988
    40   1      3.7399999999999949      43.009999999999998      56.099999999999987
    41   1      3.7399999999999949      44.879999999999995       54.22999999999999
    42   1      3.7399999999999949      44.879999999999995      57.969999999999999
    43   1      3.7399999999999949                   46.75      33.659999999999997
    44   1      3.7399999999999949                   46.75      37.399999999999999
    45   1      3.7399999999999949       48.61999999999999      35.530000000000001
    46   1      1.8699999999999974                   46.75      39.269999999999996
    47   1      1.8699999999999974       48.61999999999999      41.139999999999993
    48   1      3.7399999999999949                   46.75      41.139999999999993
    49   1      3.7399999999999949       48.61999999999999      39.269999999999996
    50   1      1.8699999999999974                   46.75      43.009999999999998
    51   1      1.8699999999999974       48.61999999999999      44.879999999999995
    52   1      3.7399999999999949                   46.75      44.879999999999995
    53   1      3.7399999999999949       48.61999999999999      43.009999999999998
    54   1      1.8699999999999974                   46.75                   46.75
    55   1      1.8699999999999974       48.61999999999999       48.61999999999999
    56   1      3.7399999999999949                   46.75       48.61999999999999
    57   1      3.7399999999999949       48.61999999999999                   46.75
    58   1      1.8699999999999974                   46.75      50.489999999999988
    59   1      1.8699999999999974       48.61999999999999      52.359999999999985
    60   1      3.7399999999999949                   46.75      52.359999999999985
    61   1      3.7399999999999949       48.61999999999999      50.489999999999988
    62   1      1.8699999999999974                   46.75       54.22999999999999
    63   1      3.7399999999999949                   46.75      56.099999999999987
    64   1      3.7399999999999949       48.61999999999999       54.22999999999999
    65   1      3.7399999999999949                   46.75      59.839999999999989
    66   1      3.7399999999999949       48.61999999999999      57.969999999999999
    67   1      3.7399999999999949      50.489999999999988      37.399999999999999
    68   1      3.7399999999999949      50.489999999999988      41.139999999999993
    69   1      3.7399999999999949      52.359999999999985      39.269999999999996
    70   1      1.8699999999999974      50.489999999999988      43.009999999999998
    71   1      1.8699999999999974      52.359999999999985      44.879999999999995
    72   1      3.7399999999999949      50.489999999999988      44.879999999999995
    73   1      3.7399999999999949      52.359999999999985      43.009999999999998
    74   1      1.8699999999999974      50.489999999999988                   46.75
    75   1      1.8699999999999974      52.359999999999985       48.61999999999999
    76   1      3.7399999999999949      50.489999999999988       48.61999999999999
    77   1      3.7399999999999949      52.359999999999985                   46.75
    78   1      1.8699999999999974      50.489999999999988      50.489999999999988
    79   1      3.7399999999999949      50.489999999999988      52.359999999999985
    80   1      3.7399999999999949      52.359999999999985      50.489999999999988
    81   1      3.7399999999999949      50.489999999999988      56.099999999999987
    82   1      3.7399999999999949      52.359999999999985       54.22999999999999
    83   1      3.7399999999999949       54.22999999999999      41.139999999999993
    84   1      3.7399999999999949       54.22999999999999      44.879999999999995
    85   1      3.7399999999999949      56.099999999999987      43.009999999999998
    86   1      1.8699999999999974       54.22999999999999                   46.75
    87   1      3.7399999999999949       54.22999999999999       48.61999999999999
    88   1      3.7399999999999949      56.099999999999987                   46.75
    89   1      3.7399999999999949       54.22999999999999      52.359999999999985
    90   1      3.7399999999999949      56.099999999999987      50.489999999999988
    91   1      3.7399999999999949      57.969999999999999      44.879999999999995
    92   1      3.7399999999999949      57.969999999999999       48.61999999999999
    93   1      3.7399999999999949      59.839999999999989                   46.75
    94   1       7.479999999999996      22.439999999999998                   46.75
    95   1       7.479999999999996      24.309999999999995      44.879999999999995
    96   1       7.479999999999996      26.179999999999993      43.009999999999998
    97   1       7.479999999999996      24.309999999999995       48.61999999999999
    98   1       7.479999999999996      26.179999999999993                   46.75
    99   1       7.479999999999996      26.179999999999993      50.489999999999988
   100   1       7.479999999999996      28.049999999999994      41.139999999999993
   101   1       7.479999999999996      29.919999999999995      39.269999999999996
   102   1      5.6099999999999994      29.919999999999995      44.879999999999995
   103   1       7.479999999999996      28.049999999999994      44.879999999999995
   104   1       7.479999999999996      29.919999999999995      43.009999999999998
   105   1      5.6099999999999994      28.049999999999994                   46.75
   106   1      5.6099999999999994      29.919999999999995       48.61999999999999
   107   1       7.479999999999996      28.049999999999994       48.61999999999999
   108   1       7.479999999999996      29.919999999999995                   46.75
   109   1       7.479999999999996      28.049999999999994      52.359999999999985
   110   1       7.479999999999996      29.919999999999995      50.489999999999988
   111   1       7.479999999999996      29.919999999999995       54.22999999999999
   112   1       7.479999999999996      31.789999999999996      37.399999999999999
   113   1       7.479999999999996      33.659999999999997      35.530000000000001
   114   1      5.6099999999999994      33.659999999999997      41.139999999999993
   115   1       7.479999999999996      31.789999999999996      41.139999999999993
   116   1       7.479999999999996      33.659999999999997      39.269999999999996
   117   1      5.6099999999999994      31.789999999999996      43.009999999999998
   118   1      5.6099999999999994      33.659999999999997      44.879999999999995
   119   1       7.479999999999996      31.789999999999996      44.879999999999995
   120   1       7.479999999999996      33.659999999999997      43.009999999999998
   121   1      5.6099999999999994      31.789999999999996                   46.75
   122   1      5.6099999999999994      33.659999999999997       48.61999999999999
   123   1       7.479999999999996      31.789999999999996       48.61999999999999
   124   1       7.479999999999996      33.659999999999997                   46.75
   125   1      5.6099999999999994      31.789999999999996      50.489999999999988
   126   1      5.6099999999999994      33.659999999999997      52.359999999999985
   127   1       7.479999999999996      31.789999999999996      52.359999999999985
   128   1       7.479999999999996      33.659999999999997      50.489999999999988
   129   1       7.479999999999996      31.789999999999996      56.099999999999987
   130   1       7.479999999999996      33.659999999999997       54.22999999999999
   131   1       7.479999999999996      33.659999999999997      57.969999999999999
   132   1       7.479999999999996      35.530000000000001      33.659999999999997
   133   1       7.479999999999996      37.399999999999999      31.789999999999996
   134   1      5.6099999999999994      37.399999999999999      37.399999999999999
   135   1       7.479999999999996      35.530000000000001      37.399999999999999
   136   1       7.479999999999996      37.399999999999999      35.530000000000001
   137   1      5.6099999999999994      35.530000000000001      39.269999999999996
   138   1      5.6099999999999994      37.399999999999999      41.139999999999993
   139   1       7.479999999999996      35.530000000000001      41.139999999999993
   140   1       7.479999999999996      37.399999999999999      39.269999999999996
   141   1      5.6099999999999994      35.530000000000001      43.009999999999998
   142   1      5.6099999999999994      37.399999999999999      44.879999999999995
   143   1       7.479999999999996      35.530000000000001      44.879999999999995
   144   1       7.479999999999996      37.399999999999999      43.009999999999998
   145   1      5.6099999999999994      35.530000000000001                   46.75
   146   1      5.6099999999999994      37.399999999999999       48.61999999999999
   147   1       7.479999999999996      35.530000000000001       48.61999999999999
   148   1       7.479999999999996      37.399999999999999                   46.75
   149   1      5.6099999999999994      35.530000000000001      50.489999999999988
   150   1      5.6099999999999994      37.399999999999999      52.359999999999985
   151   1       7.479999999999996      35.530000000000001      52.359999999999985
   152   1       7.479999999999996      37.399999999999999      50.489999999999988
   153   1      5.6099999999999994      35.530000000000001       54.22999999999999
   154   1      5.6099999999999994      37.399999999999999      56.099999999999987
   155   1       7.479999999999996      35.530000000000001      56.099999999999987
   156   1       7.479999999999996      37.399999999999999       54.22999999999999
   157   1       7.479999999999996      35.530000000000001      59.839999999999989
   158   1       7.479999999999996      37.399999999999999      57.969999999999999
   159   1       7.479999999999996      37.399999999999999      61.710000000000001
   160   1       7.479999999999996      39.269999999999996      29.919999999999995
   161   1       7.479999999999996      41.139999999999993      28.049999999999994
   162   1      5.6099999999999994      41.139999999999993      33.659999999999997
   163   1       7.479999999999996      39.269999999999996      33.659999999999997
   164   1       7.479999999999996      41.139999999999993      31.789999999999996
   165   1      5.6099999999999994      39.269999999999996      35.530000000000001
   166   1      5.6099999999999994      41.139999999999993      37.399999999999999
   167   1       7.479999999999996      39.269999999999996      37.399999999999999
   168   1       7.479999999999996      41.139999999999993      35.530000000000001
   169   1      5.6099999999999994      39.269999999999996      39.269999999999996
   170   1      5.6099999999999994      41.139999999999993      41.139999999999993
   171   1       7.479999999999996      39.269999999999996      41.139999999999993
   172   1       7.479999999999996      41.139999999999993      39.269999999999996
   173   1      5.6099999999999994      39.269999999999996      43.009999999999998
   174   1      5.6099999999999994      41.139999999999993      44.879999999999995
   175   1       7.479999999999996      39.269999999999996      44.879999999999995
   176   1       7.479999999999996      41.139999999999993      43.009999999999998
   177   1      5.6099999999999994      39.269999999999996                   46.75
   178   1      5.6099999999999994      41.139999999999993       48.61999999999999
   179   1       7.479999999999996      39.269999999999996       48.61999999999999
   180   1       7.479999999999996      41.139999999999993                   46.75
   181   1      5.6099999999999994      39.269999999999996      50.489999999999988
   182   1      5.6099999999999994      41.139999999999993      52.359999999999985
   183   1       7.479999999999996      39.269999999999996      52.359999999999985
   184   1       7.479999999999996      41.139999999999993      50.489999999999988
   185   1      5.6099999999999994      39.269999999999996       54.22999999999999
   186   1      5.6099999999999994      41.139999999999993      56.099999999999987
   187   1       7.479999999999996      39.269999999999996      56.099999999999987
   188   1       7.479999999999996      41.139999999999993       54.22999999999999
   189   1      5.6099999999999994      39.269999999999996      57.969999999999999
   190   1      5.6099999999999994      41.139999999999993      59.839999999999989
   191   1       7.479999999999996      39.269999999999996      59.839999999999989
   192   1       7.479999999999996      41.139999999999993      57.969999999999999
   193   1       7.479999999999996      39.269999999999996      63.579999999999991
   194   1       7.479999999999996      41.139999999999993      61.710000000000001
   195   1       7.479999999999996      41.139999999999993      65.450000000000003
   196   1       7.479999999999996      43.009999999999998      26.179999999999993
   197   1       7.479999999999996      44.879999999999995      24.309999999999995
   198   1      5.6099999999999994      44.879999999999995      29.919999999999995
   199   1       7.479999999999996      43.009999999999998      29.919999999999995
   200   1       7.479999999999996      44.879999999999995      28.049999999999994
   201   1      5.6099999999999994      43.009999999999998      31.789999999999996
   202   1      5.6099999999999994      44.879999999999995      33.659999999999997
   203   1       7.479999999999996      43.009999999999998      33.659999999999997
   204   1       7.479999999999996      44.879999999999995      31.789999999999996
   205   1      5.6099999999999994      43.009999999999998      35.530000000000001
   206   1      5.6099999999999994      44.879999999999995      37.399999999999999
   207   1       7.479999999999996      43.009999999999998      37.399999999999999
   208   1       7.479999999999996      44.879999999999995      35.530000000000001
   209   1      5.6099999999999994      43.009999999999998      39.269999999999996
   210   1      5.6099999999999994      44.879999999999995      41.139999999999993
   211   1       7.479999999999996      43.009999999999998      41.139999999999993
   212   1       7.479999999999996      44.879999999999995      39.269999999999996
   213   1      5.6099999999999994      43.009999999999998      43.009999999999998
   214   1      5.6099999999999994      44.879999999999995      44.879999999999995
   215   1       7.479999999999996      43.009999999999998      44.879999999999995
   216   1       7.479999999999996      44.879999999999995      43.009999999999998
   217   1      5.6099999999999994      43.009999999999998                   46.75
   218   1      5.6099999999999994      44.879999999999995       48.61999999999999
   219   1       7.479999999999996      43.009999999999998       48.61999999999999
   220   1       7.479999999999996      44.879999999999995                   46.75
   221   1      5.6099999999999994      43.009999999999998      50.489999999999988
   222   1      5.6099999999999994      44.879999999999995      52.359999999999985
   223   1       7.479999999999996      43.009999999999998      52.359999999999985
   224   1       7.479999999999996      44.879999999999995      50.489999999999988
   225   1      5.6099999999999994      43.009999999999998       54.22999999999999
   226   1      5.6099999999999994      44.879999999999995      56.099999999999987
   227   1       7.479999999999996      43.009999999999998      56.099999999999987
   228   1       7.479999999999996      44.879999999999995       54.22999999999999
   229   1      5.6099999999999994      43.009999999999998      57.969999999999999
   230   1      5.6099999999999994      44.879999999999995      59.839999999999989
   231   1       7.479999999999996      43.009999999999998      59.839999999999989
   232   1       7.479999999999996      44.879999999999995      57.969999999999999
   233   1      5.6099999999999994      43.009999999999998      61.710000000000001
   234   1      5.6099999999999994      44.879999999999995      63.579999999999991
   235   1       7.479999999999996      43.009999999999998      63.579999999999991
   236   1       7.479999999999996      44.879999999999995      61.710000000000001
   237   1       7.479999999999996      43.009999999999998      67.320000000000007
   238   1       7.479999999999996      44.879999999999995      65.450000000000003
   239   1       7.479999999999996      44.879999999999995      69.189999999999998
   240   1       7.479999999999996                   46.75      22.439999999999998
   241   1       7.479999999999996                   46.75      26.179999999999993
   242   1       7.479999999999996       48.61999999999999      24.309999999999995
   243   1      5.6099999999999994                   46.75      28.049999999999994
   244   1      5.6099999999999994       48.61999999999999      29.919999999999995
   245   1       7.479999999999996                   46.75      29.919999999999995
   246   1       7.479999999999996       48.61999999999999      28.049999999999994
   247   1      5.6099999999999994                   46.75      31.789999999999996
   248   1      5.6099999999999994       48.61999999999999      33.659999999999997
   249   1       7.479999999999996                   46.75      33.659999999999997
   250   1       7.479999999999996       48.61999999999999      31.789999999999996
   251   1      5.6099999999999994                   46.75      35.530000000000001
   252   1      5.6099999999999994       48.61999999999999      37.399999999999999
   253   1       7.479999999999996                   46.75      37.399999999999999
   254   1       7.479999999999996       48.61999999999999      35.530000000000001
   255   1      5.6099999999999994                   46.75      39.269999999999996
   256   1      5.6099999999999994       48.61999999999999      41.139999999999993
   257   1       7.479999999999996                   46.75      41.139999999999993
   258   1       7.479999999999996       48.61999999999999      39.269999999999996
   259   1      5.6099999999999994                   46.75      43.009999999999998
   260   1      5.6099999999999994       48.61999999999999      44.879999999999995
   261   1       7.479999999999996                   46.75      44.879999999999995
   262   1       7.479999999999996       48.61999999999999      43.009999999999998
   263   1      5.6099999999999994                   46.75                   46.75
   264   1      5.6099999999999994       48.61999999999999       48.61999999999999
   265   1       7.479999999999996                   46.75       48.61999999999999
   266   1       7.479999999999996       48.61999999999999                   46.75
   267   1      5.6099999999999994                   46.75      50.489999999999988
   268   1      5.6099999999999994       48.61999999999999      52.359999999999985
   269   1       7.479999999999996                   46.75      52.359999999999985
   270   1       7.479999999999996       48.61999999999999      50.489999999999988
   271   1      5.6099999999999994                   46.75       54.22999999999999
   272   1      5.6099999999999994       48.61999999999999      56.099999999999987
   273   1       7.479999999999996                   46.75      56.099999999999987
   274   1       7.479999999999996       48.61999999999999       54.22999999999999
   275   1      5.6099999999999994                   46.75      57.969999999999999
   276   1      5.6099999999999994       48.61999999999999      59.839999999999989
   277   1       7.479999999999996                   46.75      59.839999999999989
   278   1       7.479999999999996       48.61999999999999      57.969999999999999
   279   1      5.6099999999999994                   46.75      61.710000000000001
   280   1      5.6099999999999994       48.61999999999999      63.579999999999991
   281   1       7.479999999999996                   46.75      63.579999999999991
   282   1       7.479999999999996       48.61999999999999      61.710000000000001
   283   1      5.6099999999999994                   46.75      65.450000000000003
   284   1       7.479999999999996                   46.75      67.320000000000007
   285   1       7.479999999999996       48.61999999999999      65.450000000000003
   286   1       7.479999999999996                   46.75      71.060000000000002
   287   1       7.479999999999996       48.61999999999999      69.189999999999998
   288   1       7.479999999999996      50.489999999999988      26.179999999999993
   289   1       7.479999999999996      50.489999999999988      29.919999999999995
   290   1       7.479999999999996      52.359999999999985      28.049999999999994
   291   1      5.6099999999999994      50.489999999999988      31.789999999999996
   292   1      5.6099999999999994      52.359999999999985      33.659999999999997
   293   1       7.479999999999996      50.489999999999988      33.659999999999997
   294   1       7.479999999999996      52.359999999999985      31.789999999999996
   295   1      5.6099999999999994      50.489999999999988      35.530000000000001
   296   1      5.6099999999999994      52.359999999999985      37.399999999999999
   297   1       7.479999999999996      50.489999999999988      37.399999999999999
   298   1       7.479999999999996      52.359999999999985      35.530000000000001
   299   1      5.6099999999999994      50.489999999999988      39.269999999999996
   300   1      5.6099999999999994      52.359999999999985      41.139999999999993
   301   1       7.479999999999996      50.489999999999988      41.139999999999993
   302   1       7.479999999999996      52.359999999999985      39.269999999999996
   303   1      5.6099999999999994      50.489999999999988      43.009999999999998
   304   1      5.6099999999999994      52.359999999999985      44.879999999999995
   305   1       7.479999999999996      50.489999999999988      44.879999999999995
   306   1       7.479999999999996      52.359999999999985      43.009999999999998
   307   1      5.6099999999999994      50.489999999999988                   46.75
   308   1      5.6099999999999994      52.359999999999985       48.61999999999999
   309   1       7.479999999999996      50.489999999999988       48.61999999999999
   310   1       7.479999999999996      52.359999999999985                   46.75
   311   1      5.6099999999999994      50.489999999999988      50.489999999999988
   312   1      5.6099999999999994      52.359999999999985      52.359999999999985
   313   1       7.479999999999996      50.489999999999988      52.359999999999985
   314   1       7.479999999999996      52.359999999999985      50.489999999999988
   315   1      5.6099999999999994      50.489999999999988       54.22999999999999
   316   1      5.6099999999999994      52.359999999999985      56.099999999999987
   317   1       7.479999999999996      50.489999999999988      56.099999999999987
   318   1       7.479999999999996      52.359999999999985       54.22999999999999
   319   1      5.6099999999999994      50.489999999999988      57.969999999999999
   320   1      5.6099999999999994      52.359999999999985      59.839999999999989
   321   1       7.479999999999996      50.489999999999988      59.839999999999989
   322   1       7.479999999999996      52.359999999999985      57.969999999999999
   323   1      5.6099999999999994      50.489999999999988      61.710000000000001
   324   1       7.479999999999996      50.489999999999988      63.579999999999991
   325   1       7.479999999999996      52.359999999999985      61.710000000000001
   326   1       7.479999999999996      50.489999999999988      67.320000000000007
   327   1       7.479999999999996      52.359999999999985      65.450000000000003
   328   1       7.479999999999996       54.22999999999999      29.919999999999995
   329   1       7.479999999999996       54.22999999999999      33.659999999999997
   330   1       7.479999999999996      56.099999999999987      31.789999999999996
   331   1      5.6099999999999994       54.22999999999999      35.530000000000001
   332   1      5.6099999999999994      56.099999999999987      37.399999999999999
   333   1       7.479999999999996       54.22999999999999      37.399999999999999
   334   1       7.479999999999996      56.099999999999987      35.530000000000001
   335   1      5.6099999999999994       54.22999999999999      39.269999999999996
   336   1      5.6099999999999994      56.099999999999987      41.139999999999993
   337   1       7.479999999999996       54.22999999999999      41.139999999999993
   338   1       7.479999999999996      56.099999999999987      39.269999999999996
   339   1      5.6099999999999994       54.22999999999999      43.009999999999998
   340   1      5.6099999999999994      56.099999999999987      44.879999999999995
   341   1       7.479999999999996       54.22999999999999      44.879999999999995
   342   1       7.479999999999996      56.099999999999987      43.009999999999998
   343   1      5.6099999999999994       54.22999999999999                   46.75
   344   1      5.6099999999999994      56.099999999999987       48.61999999999999
   345   1       7.479999999999996       54.22999999999999       48.61999999999999
   346   1       7.479999999999996      56.099999999999987                   46.75
   347   1      5.6099999999999994       54.22999999999999      50.489999999999988
   348   1      5.6099999999999994      56.099999999999987      52.359999999999985
   349   1       7.479999999999996       54.22999999999999      52.359999999999985
   350   1       7.479999999999996      56.099999999999987      50.489999999999988
   351   1      5.6099999999999994       54.22999999999999       54.22999999999999
   352   1      5.6099999999999994      56.099999999999987      56.099999999999987
   353   1       7.479999999999996       54.22999999999999      56.099999999999987
   354   1       7.479999999999996      56.099999999999987       54.22999999999999
   355   1      5.6099999999999994       54.22999999999999      57.969999999999999
   356   1       7.479999999999996       54.22999999999999      59.839999999999989
   357   1       7.479999999999996      56.099999999999987      57.969999999999999
   358   1       7.479999999999996       54.22999999999999      63.579999999999991