model_files/NiFeCrCoCu/NiFeCrCoCu_30000/NiFeCrCoCu_410/NiFeCrCoCu_410_fcc_29755_temp.data (written by ASE) 

29755 	 atoms 
5  atom types
0.0                      78  xlo xhi
0.0                      78  ylo yhi
0.0                      78  zlo zhi


Atoms 

     1   1      1.7850000000000035      28.560000000000002      30.344999999999995
     2   1      1.7850000000000035      30.344999999999995      28.560000000000002
     3   1      1.7850000000000035      28.560000000000002      33.914999999999999
     4   1      1.7850000000000035      30.344999999999995      32.130000000000003
     5   1      1.7850000000000035      28.560000000000002      37.484999999999999
     6   1      1.7850000000000035      30.344999999999995      35.700000000000003
     7   1      1.7850000000000035      28.560000000000002      41.054999999999993
     8   1      1.7850000000000035      30.344999999999995      39.270000000000003
     9   1      1.7850000000000035      28.560000000000002                  44.625
    10   1      1.7850000000000035      30.344999999999995      42.840000000000003
    11   1      1.7850000000000035      28.560000000000002                  48.195
    12   1      1.7850000000000035      30.344999999999995      46.409999999999997
    13   1      1.7850000000000035      30.344999999999995      49.979999999999997
    14   1      1.7850000000000035      32.130000000000003      30.344999999999995
    15   1      1.7850000000000035      33.914999999999999      28.560000000000002
    16   1      1.7850000000000035      32.130000000000003      33.914999999999999
    17   1      1.7850000000000035      33.914999999999999      32.130000000000003
    18   1      1.7850000000000035      32.130000000000003      37.484999999999999
    19   1      1.7850000000000035      33.914999999999999      35.700000000000003
    20   1      1.7850000000000035      32.130000000000003      41.054999999999993
    21   1      1.7850000000000035      33.914999999999999      39.270000000000003
    22   1      1.7850000000000035      32.130000000000003                  44.625
    23   1      1.7850000000000035      33.914999999999999      42.840000000000003
    24   1      1.7850000000000035      32.130000000000003                  48.195
    25   1      1.7850000000000035      33.914999999999999      46.409999999999997
    26   1      1.7850000000000035      33.914999999999999      49.979999999999997
    27   1      1.7850000000000035      35.700000000000003      30.344999999999995
    28   1      1.7850000000000035      37.484999999999999      28.560000000000002
    29   1      1.7850000000000035      35.700000000000003      33.914999999999999
    30   1      1.7850000000000035      37.484999999999999      32.130000000000003
    31   1  7.1054273576010019e-15      35.700000000000003      35.700000000000003
    32   1  7.1054273576010019e-15      37.484999999999999      37.484999999999999
    33   1      1.7850000000000035      35.700000000000003      37.484999999999999
    34   1      1.7850000000000035      37.484999999999999      35.700000000000003
    35   1  7.1054273576010019e-15      35.700000000000003      39.270000000000003
    36   1  7.1054273576010019e-15      37.484999999999999      41.054999999999993
    37   1      1.7850000000000035      35.700000000000003      41.054999999999993
    38   1      1.7850000000000035      37.484999999999999      39.270000000000003
    39   1  7.1054273576010019e-15      35.700000000000003      42.840000000000003
    40   1      1.7850000000000035      35.700000000000003                  44.625
    41   1      1.7850000000000035      37.484999999999999      42.840000000000003
    42   1      1.7850000000000035      35.700000000000003                  48.195
    43   1      1.7850000000000035      37.484999999999999      46.409999999999997
    44   1      1.7850000000000035      37.484999999999999      49.979999999999997
    45   1      1.7850000000000035      39.270000000000003      30.344999999999995
    46   1      1.7850000000000035      41.054999999999993      28.560000000000002
    47   1      1.7850000000000035      39.270000000000003      33.914999999999999
    48   1      1.7850000000000035      41.054999999999993      32.130000000000003
    49   1  7.1054273576010019e-15      39.270000000000003      35.700000000000003
    50   1  7.1054273576010019e-15      41.054999999999993      37.484999999999999
    51   1      1.7850000000000035      39.270000000000003      37.484999999999999
    52   1      1.7850000000000035      41.054999999999993      35.700000000000003
    53   1  7.1054273576010019e-15      39.270000000000003      39.270000000000003
    54   1  7.1054273576010019e-15      41.054999999999993      41.054999999999993
    55   1      1.7850000000000035      39.270000000000003      41.054999999999993
    56   1      1.7850000000000035      41.054999999999993      39.270000000000003
    57   1  7.1054273576010019e-15      39.270000000000003      42.840000000000003
    58   1      1.7850000000000035      39.270000000000003                  44.625
    59   1      1.7850000000000035      41.054999999999993      42.840000000000003
    60   1      1.7850000000000035      39.270000000000003                  48.195
    61   1      1.7850000000000035      41.054999999999993      46.409999999999997
    62   1      1.7850000000000035      41.054999999999993      49.979999999999997
    63   1      1.7850000000000035      42.840000000000003      30.344999999999995
    64   1      1.7850000000000035                  44.625      28.560000000000002
    65   1      1.7850000000000035      42.840000000000003      33.914999999999999
    66   1      1.7850000000000035                  44.625      32.130000000000003
    67   1  7.1054273576010019e-15      42.840000000000003      35.700000000000003
    68   1      1.7850000000000035      42.840000000000003      37.484999999999999
    69   1      1.7850000000000035                  44.625      35.700000000000003
    70   1  7.1054273576010019e-15      42.840000000000003      39.270000000000003
    71   1      1.7850000000000035      42.840000000000003      41.054999999999993
    72   1      1.7850000000000035                  44.625      39.270000000000003
    73   1  7.1054273576010019e-15      42.840000000000003      42.840000000000003
    74   1      1.7850000000000035      42.840000000000003                  44.625
    75   1      1.7850000000000035                  44.625      42.840000000000003
    76   1      1.7850000000000035      42.840000000000003                  48.195
    77   1      1.7850000000000035                  44.625      46.409999999999997
    78   1      1.7850000000000035                  44.625      49.979999999999997
    79   1      1.7850000000000035      46.409999999999997      30.344999999999995
    80   1      1.7850000000000035                  48.195      28.560000000000002
    81   1      1.7850000000000035      46.409999999999997      33.914999999999999
    82   1      1.7850000000000035                  48.195      32.130000000000003
    83   1      1.7850000000000035      46.409999999999997      37.484999999999999
    84   1      1.7850000000000035                  48.195      35.700000000000003
    85   1      1.7850000000000035      46.409999999999997      41.054999999999993
    86   1      1.7850000000000035                  48.195      39.270000000000003
    87   1      1.7850000000000035      46.409999999999997                  44.625
    88   1      1.7850000000000035                  48.195      42.840000000000003
    89   1      1.7850000000000035      46.409999999999997                  48.195
    90   1      1.7850000000000035                  48.195      46.409999999999997
    91   1      1.7850000000000035                  48.195      49.979999999999997
    92   1      1.7850000000000035      49.979999999999997      30.344999999999995
    93   1      1.7850000000000035      49.979999999999997      33.914999999999999
    94   1      1.7850000000000035      49.979999999999997      37.484999999999999
    95   1      1.7850000000000035      49.979999999999997      41.054999999999993
    96   1      1.7850000000000035      49.979999999999997                  44.625
    97   1      1.7850000000000035      49.979999999999997                  48.195
    98   1       5.355000000000004      14.280000000000005      16.065000000000005
    99   1       5.355000000000004      16.065000000000005      14.280000000000005
   100   1       5.355000000000004      14.280000000000005      19.635000000000005
   101   1       5.355000000000004      16.065000000000005      17.850000000000005
   102   1       5.355000000000004      14.280000000000005      23.205000000000002
   103   1       5.355000000000004      16.065000000000005      21.420000000000002
   104   1       5.355000000000004      14.280000000000005      26.775000000000006
   105   1       5.355000000000004      16.065000000000005      24.990000000000006
   106   1       5.355000000000004      14.280000000000005      30.344999999999995
   107   1       5.355000000000004      16.065000000000005      28.560000000000002
   108   1       5.355000000000004      14.280000000000005      33.914999999999999
   109   1       5.355000000000004      16.065000000000005      32.130000000000003
   110   1       5.355000000000004      14.280000000000005      37.484999999999999
   111   1       5.355000000000004      16.065000000000005      35.700000000000003
   112   1       5.355000000000004      14.280000000000005      41.054999999999993
   113   1       5.355000000000004      16.065000000000005      39.270000000000003
   114   1       5.355000000000004      14.280000000000005                  44.625
   115   1       5.355000000000004      16.065000000000005      42.840000000000003
   116   1       5.355000000000004      14.280000000000005                  48.195
   117   1       5.355000000000004      16.065000000000005      46.409999999999997
   118   1       5.355000000000004      14.280000000000005      51.765000000000001
   119   1       5.355000000000004      16.065000000000005      49.979999999999997
   120   1       5.355000000000004      14.280000000000005      55.335000000000001
   121   1       5.355000000000004      16.065000000000005      53.549999999999997
   122   1       5.355000000000004      14.280000000000005      58.905000000000001
   123   1       5.355000000000004      16.065000000000005      57.120000000000005
   124   1       5.355000000000004      14.280000000000005      62.474999999999994
   125   1       5.355000000000004      16.065000000000005      60.689999999999991
   126   1       5.355000000000004      16.065000000000005      64.260000000000005
   127   1       5.355000000000004      17.850000000000005      16.065000000000005
   128   1       5.355000000000004      19.635000000000005      14.280000000000005
   129   1       5.355000000000004      17.850000000000005      19.635000000000005
   130   1       5.355000000000004      19.635000000000005      17.850000000000005
   131   1       5.355000000000004      17.850000000000005      23.205000000000002
   132   1       5.355000000000004      19.635000000000005      21.420000000000002
   133   1       5.355000000000004      17.850000000000005      26.775000000000006
   134   1       5.355000000000004      19.635000000000005      24.990000000000006
   135   1       5.355000000000004      17.850000000000005      30.344999999999995
   136   1       5.355000000000004      19.635000000000005      28.560000000000002
   137   1       5.355000000000004      17.850000000000005      33.914999999999999
   138   1       5.355000000000004      19.635000000000005      32.130000000000003
   139   1       5.355000000000004      17.850000000000005      37.484999999999999
   140   1       5.355000000000004      19.635000000000005      35.700000000000003
   141   1       5.355000000000004      17.850000000000005      41.054999999999993
   142   1       5.355000000000004      19.635000000000005      39.270000000000003
   143   1       5.355000000000004      17.850000000000005                  44.625
   144   1       5.355000000000004      19.635000000000005      42.840000000000003
   145   1       5.355000000000004      17.850000000000005                  48.195
   146   1       5.355000000000004      19.635000000000005      46.409999999999997
   147   1       5.355000000000004      17.850000000000005      51.765000000000001
   148   1       5.355000000000004      19.635000000000005      49.979999999999997
   149   1       5.355000000000004      17.850000000000005      55.335000000000001
   150   1       5.355000000000004      19.635000000000005      53.549999999999997
   151   1       5.355000000000004      17.850000000000005      58.905000000000001
   152   1       5.355000000000004      19.635000000000005      57.120000000000005
   153   1       5.355000000000004      17.850000000000005      62.474999999999994
   154   1       5.355000000000004      19.635000000000005      60.689999999999991
   155   1       5.355000000000004      19.635000000000005      64.260000000000005
   156   1       5.355000000000004      21.420000000000002      16.065000000000005
   157   1       5.355000000000004      23.205000000000002      14.280000000000005
   158   1       5.355000000000004      21.420000000000002      19.635000000000005
   159   1       5.355000000000004      23.205000000000002      17.850000000000005
   160   1      3.5700000000000069      21.420000000000002      21.420000000000002
   161   1      3.5700000000000069      23.205000000000002      23.205000000000002
   162   1       5.355000000000004      21.420000000000002      23.205000000000002
   163   1       5.355000000000004      23.205000000000002      21.420000000000002
   164   1      3.5700000000000069      21.420000000000002      24.990000000000006
   165   1      3.5700000000000069      23.205000000000002      26.775000000000006
   166   1       5.355000000000004      21.420000000000002      26.775000000000006
   167   1       5.355000000000004      23.205000000000002      24.990000000000006
   168   1      3.5700000000000069      21.420000000000002      28.560000000000002
   169   1      3.5700000000000069      23.205000000000002      30.344999999999995
   170   1       5.355000000000004      21.420000000000002      30.344999999999995
   171   1       5.355000000000004      23.205000000000002      28.560000000000002
   172   1      3.5700000000000069      21.420000000000002      32.130000000000003
   173   1      3.5700000000000069      23.205000000000002      33.914999999999999
   174   1       5.355000000000004      21.420000000000002      33.914999999999999
   175   1       5.355000000000004      23.205000000000002      32.130000000000003
   176   1      3.5700000000000069      21.420000000000002      35.700000000000003
   177   1      3.5700000000000069      23.205000000000002      37.484999999999999
   178   1       5.355000000000004      21.420000000000002      37.484999999999999
   179   1       5.355000000000004      23.205000000000002      35.700000000000003
   180   1      3.5700000000000069      21.420000000000002      39.270000000000003
   181   1      3.5700000000000069      23.205000000000002      41.054999999999993
   182   1       5.355000000000004      21.420000000000002      41.054999999999993
   183   1       5.355000000000004      23.205000000000002      39.270000000000003
   184   1      3.5700000000000069      21.420000000000002      42.840000000000003
   185   1      3.5700000000000069      23.205000000000002                  44.625
   186   1       5.355000000000004      21.420000000000002                  44.625
   187   1       5.355000000000004      23.205000000000002      42.840000000000003
   188   1      3.5700000000000069      21.420000000000002      46.409999999999997
   189   1      3.5700000000000069      23.205000000000002                  48.195
   190   1       5.355000000000004      21.420000000000002                  48.195
   191   1       5.355000000000004      23.205000000000002      46.409999999999997
   192   1      3.5700000000000069      21.420000000000002      49.979999999999997
   193   1      3.5700000000000069      23.205000000000002      51.765000000000001
   194   1       5.355000000000004      21.420000000000002      51.765000000000001
   195   1       5.355000000000004      23.205000000000002      49.979999999999997
   196   1      3.5700000000000069      21.420000000000002      53.549999999999997
   197   1      3.5700000000000069      23.205000000000002      55.335000000000001
   198   1       5.355000000000004      21.420000000000002      55.335000000000001
   199   1       5.355000000000004      23.205000000000002      53.549999999999997
   200   1      3.5700000000000069      21.420000000000002      57.120000000000005
   201   1       5.355000000000004      21.420000000000002      58.905000000000001
   202   1       5.355000000000004      23.205000000000002      57.120000000000005
   203   1       5.355000000000004      21.420000000000002      62.474999999999994
   204   1       5.355000000000004      23.205000000000002      60.689999999999991
   205   1       5.355000000000004      23.205000000000002      64.260000000000005
   206   1       5.355000000000004      24.990000000000006      16.065000000000005
   207   1       5.355000000000004      26.775000000000006      14.280000000000005
   208   1       5.355000000000004      24.990000000000006      19.635000000000005
   209   1       5.355000000000004      26.775000000000006      17.850000000000005
   210   1      3.5700000000000069      24.990000000000006      21.420000000000002
   211   1      3.5700000000000069      26.775000000000006      23.205000000000002
   212   1       5.355000000000004      24.990000000000006      23.205000000000002
   213   1       5.355000000000004      26.775000000000006      21.420000000000002
   214   1      3.5700000000000069      24.990000000000006      24.990000000000006
   215   1      3.5700000000000069      26.775000000000006      26.775000000000006
   216   1       5.355000000000004      24.990000000000006      26.775000000000006
   217   1       5.355000000000004      26.775000000000006      24.990000000000006
   218   1      3.5700000000000069      24.990000000000006      28.560000000000002
   219   1      3.5700000000000069      26.775000000000006      30.344999999999995
   220   1       5.355000000000004      24.990000000000006      30.344999999999995
   221   1       5.355000000000004      26.775000000000006      28.560000000000002
   222   1      3.5700000000000069      24.990000000000006      32.130000000000003
   223   1      3.5700000000000069      26.775000000000006      33.914999999999999
   224   1       5.355000000000004      24.990000000000006      33.914999999999999
   225   1       5.355000000000004      26.775000000000006      32.130000000000003
   226   1      3.5700000000000069      24.990000000000006      35.700000000000003
   227   1      3.5700000000000069      26.775000000000006      37.484999999999999
   228   1       5.355000000000004      24.990000000000006      37.484999999999999
   229   1       5.355000000000004      26.775000000000006      35.700000000000003
   230   1      3.5700000000000069      24.990000000000006      39.270000000000003
   231   1      3.5700000000000069      26.775000000000006      41.054999999999993
   232   1       5.355000000000004      24.990000000000006      41.054999999999993
   233   1       5.355000000000004      26.775000000000006      39.270000000000003
   234   1      3.5700000000000069      24.990000000000006      42.840000000000003
   235   1      3.5700000000000069      26.775000000000006                  44.625
   236   1       5.355000000000004      24.990000000000006                  44.625
   237   1       5.355000000000004      26.775000000000006      42.840000000000003
   238   1      3.5700000000000069      24.990000000000006      46.409999999999997
   239   1      3.5700000000000069      26.775000000000006                  48.195
   240   1       5.355000000000004      24.990000000000006                  48.195
   241   1       5.355000000000004      26.775000000000006      46.409999999999997
   242   1      3.5700000000000069      24.990000000000006      49.979999999999997
   243   1      3.5700000000000069      26.775000000000006      51.765000000000001
   244   1       5.355000000000004      24.990000000000006      51.765000000000001
   245   1       5.355000000000004      26.775000000000006      49.979999999999997
   246   1      3.5700000000000069      24.990000000000006      53.549999999999997
   247   1      3.5700000000000069      26.775000000000006      55.335000000000001
   248   1       5.355000000000004      24.990000000000006      55.335000000000001
   249   1       5.355000000000004      26.775000000000006      53.549999999999997
   250   1      3.5700000000000069      24.990000000000006      57.120000000000005
   251   1       5.355000000000004      24.990000000000006      58.905000000000001
   252   1       5.355000000000004      26.775000000000006      57.120000000000005
   253   1       5.355000000000004      24.990000000000006      62.474999999999994
   254   1       5.355000000000004      26.775000000000006      60.689999999999991
   255   1       5.355000000000004      26.775000000000006      64.260000000000005
   256   1       5.355000000000004      28.560000000000002      16.065000000000005
   257   1       5.355000000000004      30.344999999999995      14.280000000000005
   258   1       5.355000000000004      28.560000000000002      19.635000000000005
   259   1       5.355000000000004      30.344999999999995      17.850000000000005
   260   1      3.5700000000000069      28.560000000000002      21.420000000000002
   261   1      3.5700000000000069      30.344999999999995      23.205000000000002
   262   1       5.355000000000004      28.560000000000002      23.205000000000002
   263   1       5.355000000000004      30.344999999999995      21.420000000000002
   264   1      3.5700000000000069      28.560000000000002      24.990000000000006
   265   1      3.5700000000000069      30.344999999999995      26.775000000000006
   266   1       5.355000000000004      28.560000000000002      26.775000000000006
   267   1       5.355000000000004      30.344999999999995      24.990000000000006
   268   1      3.5700000000000069      28.560000000000002      28.560000000000002
   269   1      3.5700000000000069      30.344999999999995      30.344999999999995
   270   1       5.355000000000004      28.560000000000002      30.344999999999995
   271   1       5.355000000000004      30.344999999999995      28.560000000000002
   272   1      3.5700000000000069      28.560000000000002      32.130000000000003
   273   1      3.5700000000000069      30.344999999999995      33.914999999999999
   274   1       5.355000000000004      28.560000000000002      33.914999999999999
   275   1       5.355000000000004      30.344999999999995      32.130000000000003
   276   1      3.5700000000000069      28.560000000000002      35.700000000000003
   277   1      3.5700000000000069      30.344999999999995      37.484999999999999
   278   1       5.355000000000004      28.560000000000002      37.484999999999999
   279   1       5.355000000000004      30.344999999999995      35.700000000000003
   280   1      3.5700000000000069      28.560000000000002      39.270000000000003
   281   1      3.5700000000000069      30.344999999999995      41.054999999999993
   282   1       5.355000000000004      28.560000000000002      41.054999999999993
   283   1       5.355000000000004      30.344999999999995      39.270000000000003
   284   1      3.5700000000000069      28.560000000000002      42.840000000000003
   285   1      3.5700000000000069      30.344999999999995                  44.625
   286   1       5.355000000000004      28.560000000000002                  44.625
   287   1       5.355000000000004      30.344999999999995      42.840000000000003
   288   1      3.5700000000000069      28.560000000000002      46.409999999999997
   289   1      3.5700000000000069      30.344999999999995                  48.195
   290   1       5.355000000000004      28.560000000000002                  48.195
   291   1       5.355000000000004      30.344999999999995      46.409999999999997
   292   1      3.5700000000000069      28.560000000000002      49.979999999999997
   293   1      3.5700000000000069      30.344999999999995      51.765000000000001
   294   1       5.355000000000004      28.560000000000002      51.765000000000001
   295   1       5.355000000000004      30.344999999999995      49.979999999999997
   296   1      3.5700000000000069      28.560000000000002      53.549999999999997
   297   1      3.5700000000000069      30.344999999999995      55.335000000000001
   298   1       5.355000000000004      28.560000000000002      55.335000000000001
   299   1       5.355000000000004      30.344999999999995      53.549999999999997
   300   1      3.5700000000000069      28.560000000000002      57.120000000000005
   301   1       5.355000000000004      28.560000000000002      58.905000000000001
   302   1       5.355000000000004      30.344999999999995      57.120000000000005
   303   1       5.355000000000004      28.560000000000002      62.474999999999994
   304   1       5.355000000000004      30.344999999999995      60.689999999999991
   305   1       5.355000000000004      30.344999999999995      64.260000000000005
   306   1       5.355000000000004      32.130000000000003      16.065000000000005
   307   1       5.355000000000004      33.914999999999999      14.280000000000005
   308   1       5.355000000000004      32.130000000000003      19.635000000000005
   309   1       5.355000000000004      33.914999999999999      17.850000000000005
   310   1      3.5700000000000069      32.130000000000003      21.420000000000002
   311   1      3.5700000000000069      33.914999999999999      23.205000000000002
   312   1       5.355000000000004      32.130000000000003      23.205000000000002
   313   1       5.355000000000004      33.914999999999999      21.420000000000002
   314   1      3.5700000000000069      32.130000000000003      24.990000000000006
   315   1      3.5700000000000069      33.914999999999999      26.775000000000006
   316   1       5.355000000000004      32.130000000000003      26.775000000000006
   317   1       5.355000000000004      33.914999999999999      24.990000000000006
   318   1      3.5700000000000069      32.130000000000003      28.560000000000002
   319   1      3.5700000000000069      33.914999999999999      30.344999999999995
   320   1       5.355000000000004      32.130000000000003      30.344999999999995
   321   1       5.355000000000004      33.914999999999999      28.560000000000002
   322   1      3.5700000000000069      32.130000000000003      32.130000000000003
   323   1      3.5700000000000069      33.914999999999999      33.914999999999999
   324   1       5.355000000000004      32.130000000000003      33.914999999999999
   325   1       5.355000000000004      33.914999999999999      32.130000000000003
   326   1      3.5700000000000069      32.130000000000003      35.700000000000003
   327   1      3.5700000000000069      33.914999999999999      37.484999999999999
   328   1       5.355000000000004      32.130000000000003      37.484999999999999
   329   1       5.355000000000004      33.914999999999999      35.700000000000003
   330   1      3.5700000000000069      32.130000000000003      39.270000000000003
   331   1      3.5700000000000069      33.914999999999999      41.054999999999993
   332   1       5.355000000000004      32.130000000000003      41.054999999999993
   333   1       5.355000000000004      33.914999999999999      39.270000000000003
   334   1      3.5700000000000069      32.130000000000003      42.840000000000003
   335   1      3.5700000000000069      33.914999999999999                  44.625
   336   1       5.355000000000004      32.130000000000003                  44.625
   337   1       5.355000000000004      33.914999999999999      42.840000000000003
   338   1      3.5700000000000069      32.130000000000003      46.409999999999997
   339   1      3.5700000000000069      33.914999999999999                  48.195
   340   1       5.355000000000004      32.130000000000003                  48.195
   341   1       5.355000000000004      33.914999999999999      46.409999999999997
   342   1      3.5700000000000069      32.130000000000003      49.979999999999997
   343   1      3.5700000000000069      33.914999999999999      51.765000000000001
   344   1       5.355000000000004      32.130000000000003      51.765000000000001
   345   1       5.355000000000004      33.914999999999999      49.979999999999997
   346   1      3.5700000000000069      32.130000000000003      53.549999999999997
   347   1      3.5700000000000069      33.914999999999999      55.335000000000001
   348   1       5.355000000000004      32.130000000000003      55.335000000000001
   349   1       5.355000000000004      33.914999999999999      53.549999999999997
   350   1      3.5700000000000069      32.130000000000003      57.120000000000005
   351   1       5.355000000000004      32.130000000000003      58.905000000000001
   352   1       5.355000000000004      33.914999999999999      57.120000000000005
   353   1       5.355000000000004      32.130000000000003      62.474999999999994
   354   1       5.355000000000004      33.914999999999999      60.689999999999991
   355   1       5.355000000000004      33.914999999999999      64.260000000000005
   356   1       5.355000000000004      35.700000000000003      16.065000000000005
   357   1       5.355000000000004      37.484999999999999      14.280000000000005
   358   1       5.355000000000004      35.700000000000003      19.635000000000005