model_files/CuFeNi/CuFeNi_30000/CuFeNi_432/CuFeNi_432_fcc_29911_temp.data (written by ASE) 

29911 	 atoms 
3  atom types
0.0                     109  xlo xhi
0.0                     109  ylo yhi
0.0                     109  zlo zhi


Atoms 

     1   1      1.7899999999999991      51.910000000000011      53.700000000000003
     2   1      1.7899999999999991      53.700000000000003      51.910000000000011
     3   1                       0      53.700000000000003      53.700000000000003
     4   1      1.7899999999999991      53.700000000000003      55.490000000000002
     5   1      1.7899999999999991      55.490000000000002      53.700000000000003
     6   1      5.3700000000000045      44.750000000000007      53.700000000000003
     7   1      3.5799999999999983      48.330000000000005      51.910000000000011
     8   1      5.3700000000000045      46.540000000000006      51.910000000000011
     9   1      5.3700000000000045      48.330000000000005      50.120000000000012
    10   1      3.5799999999999983      48.330000000000005      55.490000000000002
    11   1      5.3700000000000045      46.540000000000006      55.490000000000002
    12   1      5.3700000000000045      48.330000000000005      53.700000000000003
    13   1      5.3700000000000045      48.330000000000005      57.280000000000008
    14   1      3.5799999999999983      51.910000000000011      48.330000000000005
    15   1      5.3700000000000045      50.120000000000012      48.330000000000005
    16   1      5.3700000000000045      51.910000000000011      46.540000000000006
    17   1      3.5799999999999983      50.120000000000012      50.120000000000012
    18   1      3.5799999999999983      51.910000000000011      51.910000000000011
    19   1      5.3700000000000045      50.120000000000012      51.910000000000011
    20   1      5.3700000000000045      51.910000000000011      50.120000000000012
    21   1      3.5799999999999983      50.120000000000012      53.700000000000003
    22   1      3.5799999999999983      51.910000000000011      55.490000000000002
    23   1      5.3700000000000045      50.120000000000012      55.490000000000002
    24   1      5.3700000000000045      51.910000000000011      53.700000000000003
    25   1      3.5799999999999983      50.120000000000012      57.280000000000008
    26   1      3.5799999999999983      51.910000000000011                   59.07
    27   1      5.3700000000000045      50.120000000000012                   59.07
    28   1      5.3700000000000045      51.910000000000011      57.280000000000008
    29   1      5.3700000000000045      51.910000000000011      60.860000000000007
    30   1      5.3700000000000045      53.700000000000003      44.750000000000007
    31   1      3.5799999999999983      55.490000000000002      48.330000000000005
    32   1      5.3700000000000045      53.700000000000003      48.330000000000005
    33   1      5.3700000000000045      55.490000000000002      46.540000000000006
    34   1      3.5799999999999983      53.700000000000003      50.120000000000012
    35   1      3.5799999999999983      55.490000000000002      51.910000000000011
    36   1      5.3700000000000045      53.700000000000003      51.910000000000011
    37   1      5.3700000000000045      55.490000000000002      50.120000000000012
    38   1      3.5799999999999983      53.700000000000003      53.700000000000003
    39   1      3.5799999999999983      55.490000000000002      55.490000000000002
    40   1      5.3700000000000045      53.700000000000003      55.490000000000002
    41   1      5.3700000000000045      55.490000000000002      53.700000000000003
    42   1      3.5799999999999983      53.700000000000003      57.280000000000008
    43   1      3.5799999999999983      55.490000000000002                   59.07
    44   1      5.3700000000000045      53.700000000000003                   59.07
    45   1      5.3700000000000045      55.490000000000002      57.280000000000008
    46   1      5.3700000000000045      53.700000000000003      62.650000000000006
    47   1      5.3700000000000045      55.490000000000002      60.860000000000007
    48   1      5.3700000000000045      57.280000000000008      48.330000000000005
    49   1      3.5799999999999983      57.280000000000008      50.120000000000012
    50   1      3.5799999999999983                   59.07      51.910000000000011
    51   1      5.3700000000000045      57.280000000000008      51.910000000000011
    52   1      5.3700000000000045                   59.07      50.120000000000012
    53   1      3.5799999999999983      57.280000000000008      53.700000000000003
    54   1      3.5799999999999983                   59.07      55.490000000000002
    55   1      5.3700000000000045      57.280000000000008      55.490000000000002
    56   1      5.3700000000000045                   59.07      53.700000000000003
    57   1      3.5799999999999983      57.280000000000008      57.280000000000008
    58   1      5.3700000000000045      57.280000000000008                   59.07
    59   1      5.3700000000000045                   59.07      57.280000000000008
    60   1      5.3700000000000045      60.860000000000007      51.910000000000011
    61   1      5.3700000000000045      60.860000000000007      55.490000000000002
    62   1      5.3700000000000045      62.650000000000006      53.700000000000003
    63   1      8.9500000000000028      41.170000000000002      53.700000000000003
    64   1      8.9500000000000028      44.750000000000007      46.540000000000006
    65   1      7.1600000000000037      44.750000000000007      51.910000000000011
    66   1      8.9500000000000028      42.960000000000008      51.910000000000011
    67   1      8.9500000000000028      44.750000000000007      50.120000000000012
    68   1      7.1600000000000037      42.960000000000008      53.700000000000003
    69   1      7.1600000000000037      44.750000000000007      55.490000000000002
    70   1      8.9500000000000028      42.960000000000008      55.490000000000002
    71   1      8.9500000000000028      44.750000000000007      53.700000000000003
    72   1      8.9500000000000028      44.750000000000007      57.280000000000008
    73   1      8.9500000000000028      44.750000000000007      60.860000000000007
    74   1      8.9500000000000028      46.540000000000006      44.750000000000007
    75   1      7.1600000000000037      48.330000000000005      48.330000000000005
    76   1      8.9500000000000028      46.540000000000006      48.330000000000005
    77   1      8.9500000000000028      48.330000000000005      46.540000000000006
    78   1      7.1600000000000037      46.540000000000006      50.120000000000012
    79   1      7.1600000000000037      48.330000000000005      51.910000000000011
    80   1      8.9500000000000028      46.540000000000006      51.910000000000011
    81   1      8.9500000000000028      48.330000000000005      50.120000000000012
    82   1      7.1600000000000037      46.540000000000006      53.700000000000003
    83   1      7.1600000000000037      48.330000000000005      55.490000000000002
    84   1      8.9500000000000028      46.540000000000006      55.490000000000002
    85   1      8.9500000000000028      48.330000000000005      53.700000000000003
    86   1      7.1600000000000037      46.540000000000006      57.280000000000008
    87   1      7.1600000000000037      48.330000000000005                   59.07
    88   1      8.9500000000000028      46.540000000000006                   59.07
    89   1      8.9500000000000028      48.330000000000005      57.280000000000008
    90   1      8.9500000000000028      46.540000000000006      62.650000000000006
    91   1      8.9500000000000028      48.330000000000005      60.860000000000007
    92   1      7.1600000000000037      51.910000000000011      44.750000000000007
    93   1      8.9500000000000028      50.120000000000012      44.750000000000007
    94   1      8.9500000000000028      51.910000000000011      42.960000000000008
    95   1      7.1600000000000037      50.120000000000012      46.540000000000006
    96   1      7.1600000000000037      51.910000000000011      48.330000000000005
    97   1      8.9500000000000028      50.120000000000012      48.330000000000005
    98   1      8.9500000000000028      51.910000000000011      46.540000000000006
    99   1      7.1600000000000037      50.120000000000012      50.120000000000012
   100   1      7.1600000000000037      51.910000000000011      51.910000000000011
   101   1      8.9500000000000028      50.120000000000012      51.910000000000011
   102   1      8.9500000000000028      51.910000000000011      50.120000000000012
   103   1      7.1600000000000037      50.120000000000012      53.700000000000003
   104   1      7.1600000000000037      51.910000000000011      55.490000000000002
   105   1      8.9500000000000028      50.120000000000012      55.490000000000002
   106   1      8.9500000000000028      51.910000000000011      53.700000000000003
   107   1      7.1600000000000037      50.120000000000012      57.280000000000008
   108   1      7.1600000000000037      51.910000000000011                   59.07
   109   1      8.9500000000000028      50.120000000000012                   59.07
   110   1      8.9500000000000028      51.910000000000011      57.280000000000008
   111   1      7.1600000000000037      50.120000000000012      60.860000000000007
   112   1      7.1600000000000037      51.910000000000011      62.650000000000006
   113   1      8.9500000000000028      50.120000000000012      62.650000000000006
   114   1      8.9500000000000028      51.910000000000011      60.860000000000007
   115   1      8.9500000000000028      51.910000000000011      64.439999999999998
   116   1      8.9500000000000028      53.700000000000003      41.170000000000002
   117   1      7.1600000000000037      53.700000000000003      42.960000000000008
   118   1      7.1600000000000037      55.490000000000002      44.750000000000007
   119   1      8.9500000000000028      53.700000000000003      44.750000000000007
   120   1      8.9500000000000028      55.490000000000002      42.960000000000008
   121   1      7.1600000000000037      53.700000000000003      46.540000000000006
   122   1      7.1600000000000037      55.490000000000002      48.330000000000005
   123   1      8.9500000000000028      53.700000000000003      48.330000000000005
   124   1      8.9500000000000028      55.490000000000002      46.540000000000006
   125   1      7.1600000000000037      53.700000000000003      50.120000000000012
   126   1      7.1600000000000037      55.490000000000002      51.910000000000011
   127   1      8.9500000000000028      53.700000000000003      51.910000000000011
   128   1      8.9500000000000028      55.490000000000002      50.120000000000012
   129   1      7.1600000000000037      53.700000000000003      53.700000000000003
   130   1      7.1600000000000037      55.490000000000002      55.490000000000002
   131   1      8.9500000000000028      53.700000000000003      55.490000000000002
   132   1      8.9500000000000028      55.490000000000002      53.700000000000003
   133   1      7.1600000000000037      53.700000000000003      57.280000000000008
   134   1      7.1600000000000037      55.490000000000002                   59.07
   135   1      8.9500000000000028      53.700000000000003                   59.07
   136   1      8.9500000000000028      55.490000000000002      57.280000000000008
   137   1      7.1600000000000037      53.700000000000003      60.860000000000007
   138   1      7.1600000000000037      55.490000000000002      62.650000000000006
   139   1      8.9500000000000028      53.700000000000003      62.650000000000006
   140   1      8.9500000000000028      55.490000000000002      60.860000000000007
   141   1      7.1600000000000037      53.700000000000003      64.439999999999998
   142   1      8.9500000000000028      53.700000000000003      66.230000000000004
   143   1      8.9500000000000028      55.490000000000002      64.439999999999998
   144   1      8.9500000000000028      57.280000000000008      44.750000000000007
   145   1      7.1600000000000037      57.280000000000008      46.540000000000006
   146   1      7.1600000000000037                   59.07      48.330000000000005
   147   1      8.9500000000000028      57.280000000000008      48.330000000000005
   148   1      8.9500000000000028                   59.07      46.540000000000006
   149   1      7.1600000000000037      57.280000000000008      50.120000000000012
   150   1      7.1600000000000037                   59.07      51.910000000000011
   151   1      8.9500000000000028      57.280000000000008      51.910000000000011
   152   1      8.9500000000000028                   59.07      50.120000000000012
   153   1      7.1600000000000037      57.280000000000008      53.700000000000003
   154   1      7.1600000000000037                   59.07      55.490000000000002
   155   1      8.9500000000000028      57.280000000000008      55.490000000000002
   156   1      8.9500000000000028                   59.07      53.700000000000003
   157   1      7.1600000000000037      57.280000000000008      57.280000000000008
   158   1      7.1600000000000037                   59.07                   59.07
   159   1      8.9500000000000028      57.280000000000008                   59.07
   160   1      8.9500000000000028                   59.07      57.280000000000008
   161   1      7.1600000000000037      57.280000000000008      60.860000000000007
   162   1      8.9500000000000028      57.280000000000008      62.650000000000006
   163   1      8.9500000000000028                   59.07      60.860000000000007
   164   1      8.9500000000000028      60.860000000000007      44.750000000000007
   165   1      8.9500000000000028      60.860000000000007      48.330000000000005
   166   1      8.9500000000000028      62.650000000000006      46.540000000000006
   167   1      7.1600000000000037      60.860000000000007      50.120000000000012
   168   1      7.1600000000000037      62.650000000000006      51.910000000000011
   169   1      8.9500000000000028      60.860000000000007      51.910000000000011
   170   1      8.9500000000000028      62.650000000000006      50.120000000000012
   171   1      7.1600000000000037      60.860000000000007      53.700000000000003
   172   1      7.1600000000000037      62.650000000000006      55.490000000000002
   173   1      8.9500000000000028      60.860000000000007      55.490000000000002
   174   1      8.9500000000000028      62.650000000000006      53.700000000000003
   175   1      7.1600000000000037      60.860000000000007      57.280000000000008
   176   1      8.9500000000000028      60.860000000000007                   59.07
   177   1      8.9500000000000028      62.650000000000006      57.280000000000008
   178   1      8.9500000000000028      60.860000000000007      62.650000000000006
   179   1      8.9500000000000028      62.650000000000006      60.860000000000007
   180   1      8.9500000000000028      64.439999999999998      51.910000000000011
   181   1      7.1600000000000037      64.439999999999998      53.700000000000003
   182   1      8.9500000000000028      64.439999999999998      55.490000000000002
   183   1      8.9500000000000028      66.230000000000004      53.700000000000003
   184   1      12.530000000000003      37.590000000000003      50.120000000000012
   185   1      12.530000000000003      37.590000000000003      53.700000000000003
   186   1      12.530000000000003      37.590000000000003      57.280000000000008
   187   1      10.740000000000004      41.170000000000002      48.330000000000005
   188   1      12.530000000000003      39.380000000000003      48.330000000000005
   189   1      12.530000000000003      41.170000000000002      46.540000000000006
   190   1      10.740000000000004      41.170000000000002      51.910000000000011
   191   1      12.530000000000003      39.380000000000003      51.910000000000011
   192   1      12.530000000000003      41.170000000000002      50.120000000000012
   193   1      10.740000000000004      39.380000000000003      53.700000000000003
   194   1      10.740000000000004      41.170000000000002      55.490000000000002
   195   1      12.530000000000003      39.380000000000003      55.490000000000002
   196   1      12.530000000000003      41.170000000000002      53.700000000000003
   197   1      10.740000000000004      41.170000000000002                   59.07
   198   1      12.530000000000003      39.380000000000003                   59.07
   199   1      12.530000000000003      41.170000000000002      57.280000000000008
   200   1      12.530000000000003      41.170000000000002      60.860000000000007
   201   1      10.740000000000004      44.750000000000007      44.750000000000007
   202   1      12.530000000000003      42.960000000000008      44.750000000000007
   203   1      12.530000000000003      44.750000000000007      42.960000000000008
   204   1      10.740000000000004      42.960000000000008      46.540000000000006
   205   1      10.740000000000004      44.750000000000007      48.330000000000005
   206   1      12.530000000000003      42.960000000000008      48.330000000000005
   207   1      12.530000000000003      44.750000000000007      46.540000000000006
   208   1      10.740000000000004      42.960000000000008      50.120000000000012
   209   1      10.740000000000004      44.750000000000007      51.910000000000011
   210   1      12.530000000000003      42.960000000000008      51.910000000000011
   211   1      12.530000000000003      44.750000000000007      50.120000000000012
   212   1      10.740000000000004      42.960000000000008      53.700000000000003
   213   1      10.740000000000004      44.750000000000007      55.490000000000002
   214   1      12.530000000000003      42.960000000000008      55.490000000000002
   215   1      12.530000000000003      44.750000000000007      53.700000000000003
   216   1      10.740000000000004      42.960000000000008      57.280000000000008
   217   1      10.740000000000004      44.750000000000007                   59.07
   218   1      12.530000000000003      42.960000000000008                   59.07
   219   1      12.530000000000003      44.750000000000007      57.280000000000008
   220   1      10.740000000000004      42.960000000000008      60.860000000000007
   221   1      10.740000000000004      44.750000000000007      62.650000000000006
   222   1      12.530000000000003      42.960000000000008      62.650000000000006
   223   1      12.530000000000003      44.750000000000007      60.860000000000007
   224   1      12.530000000000003      44.750000000000007      64.439999999999998
   225   1      10.740000000000004      48.330000000000005      41.170000000000002
   226   1      12.530000000000003      46.540000000000006      41.170000000000002
   227   1      12.530000000000003      48.330000000000005      39.380000000000003
   228   1      10.740000000000004      46.540000000000006      42.960000000000008
   229   1      10.740000000000004      48.330000000000005      44.750000000000007
   230   1      12.530000000000003      46.540000000000006      44.750000000000007
   231   1      12.530000000000003      48.330000000000005      42.960000000000008
   232   1      10.740000000000004      46.540000000000006      46.540000000000006
   233   1      10.740000000000004      48.330000000000005      48.330000000000005
   234   1      12.530000000000003      46.540000000000006      48.330000000000005
   235   1      12.530000000000003      48.330000000000005      46.540000000000006
   236   1      10.740000000000004      46.540000000000006      50.120000000000012
   237   1      10.740000000000004      48.330000000000005      51.910000000000011
   238   1      12.530000000000003      46.540000000000006      51.910000000000011
   239   1      12.530000000000003      48.330000000000005      50.120000000000012
   240   1      10.740000000000004      46.540000000000006      53.700000000000003
   241   1      10.740000000000004      48.330000000000005      55.490000000000002
   242   1      12.530000000000003      46.540000000000006      55.490000000000002
   243   1      12.530000000000003      48.330000000000005      53.700000000000003
   244   1      10.740000000000004      46.540000000000006      57.280000000000008
   245   1      10.740000000000004      48.330000000000005                   59.07
   246   1      12.530000000000003      46.540000000000006                   59.07
   247   1      12.530000000000003      48.330000000000005      57.280000000000008
   248   1      10.740000000000004      46.540000000000006      60.860000000000007
   249   1      10.740000000000004      48.330000000000005      62.650000000000006
   250   1      12.530000000000003      46.540000000000006      62.650000000000006
   251   1      12.530000000000003      48.330000000000005      60.860000000000007
   252   1      10.740000000000004      46.540000000000006      64.439999999999998
   253   1      10.740000000000004      48.330000000000005      66.230000000000004
   254   1      12.530000000000003      46.540000000000006      66.230000000000004
   255   1      12.530000000000003      48.330000000000005      64.439999999999998
   256   1      12.530000000000003      48.330000000000005      68.019999999999996
   257   1      12.530000000000003      50.120000000000012      37.590000000000003
   258   1      10.740000000000004      51.910000000000011      41.170000000000002
   259   1      12.530000000000003      50.120000000000012      41.170000000000002
   260   1      12.530000000000003      51.910000000000011      39.380000000000003
   261   1      10.740000000000004      50.120000000000012      42.960000000000008
   262   1      10.740000000000004      51.910000000000011      44.750000000000007
   263   1      12.530000000000003      50.120000000000012      44.750000000000007
   264   1      12.530000000000003      51.910000000000011      42.960000000000008
   265   1      10.740000000000004      50.120000000000012      46.540000000000006
   266   1      10.740000000000004      51.910000000000011      48.330000000000005
   267   1      12.530000000000003      50.120000000000012      48.330000000000005
   268   1      12.530000000000003      51.910000000000011      46.540000000000006
   269   1      10.740000000000004      50.120000000000012      50.120000000000012
   270   1      10.740000000000004      51.910000000000011      51.910000000000011
   271   1      12.530000000000003      50.120000000000012      51.910000000000011
   272   1      12.530000000000003      51.910000000000011      50.120000000000012
   273   1      10.740000000000004      50.120000000000012      53.700000000000003
   274   1      10.740000000000004      51.910000000000011      55.490000000000002
   275   1      12.530000000000003      50.120000000000012      55.490000000000002
   276   1      12.530000000000003      51.910000000000011      53.700000000000003
   277   1      10.740000000000004      50.120000000000012      57.280000000000008
   278   1      10.740000000000004      51.910000000000011                   59.07
   279   1      12.530000000000003      50.120000000000012                   59.07
   280   1      12.530000000000003      51.910000000000011      57.280000000000008
   281   1      10.740000000000004      50.120000000000012      60.860000000000007
   282   1      10.740000000000004      51.910000000000011      62.650000000000006
   283   1      12.530000000000003      50.120000000000012      62.650000000000006
   284   1      12.530000000000003      51.910000000000011      60.860000000000007
   285   1      10.740000000000004      50.120000000000012      64.439999999999998
   286   1      10.740000000000004      51.910000000000011      66.230000000000004
   287   1      12.530000000000003      50.120000000000012      66.230000000000004
   288   1      12.530000000000003      51.910000000000011      64.439999999999998
   289   1      12.530000000000003      50.120000000000012      69.810000000000016
   290   1      12.530000000000003      51.910000000000011      68.019999999999996
   291   1      12.530000000000003      53.700000000000003      37.590000000000003
   292   1      10.740000000000004      53.700000000000003      39.380000000000003
   293   1      10.740000000000004      55.490000000000002      41.170000000000002
   294   1      12.530000000000003      53.700000000000003      41.170000000000002
   295   1      12.530000000000003      55.490000000000002      39.380000000000003
   296   1      10.740000000000004      53.700000000000003      42.960000000000008
   297   1      10.740000000000004      55.490000000000002      44.750000000000007
   298   1      12.530000000000003      53.700000000000003      44.750000000000007
   299   1      12.530000000000003      55.490000000000002      42.960000000000008
   300   1      10.740000000000004      53.700000000000003      46.540000000000006
   301   1      10.740000000000004      55.490000000000002      48.330000000000005
   302   1      12.530000000000003      53.700000000000003      48.330000000000005
   303   1      12.530000000000003      55.490000000000002      46.540000000000006
   304   1      10.740000000000004      53.700000000000003      50.120000000000012
   305   1      10.740000000000004      55.490000000000002      51.910000000000011
   306   1      12.530000000000003      53.700000000000003      51.910000000000011
   307   1      12.530000000000003      55.490000000000002      50.120000000000012
   308   1      10.740000000000004      53.700000000000003      53.700000000000003
   309   1      10.740000000000004      55.490000000000002      55.490000000000002
   310   1      12.530000000000003      53.700000000000003      55.490000000000002
   311   1      12.530000000000003      55.490000000000002      53.700000000000003
   312   1      10.740000000000004      53.700000000000003      57.280000000000008
   313   1      10.740000000000004      55.490000000000002                   59.07
   314   1      12.530000000000003      53.700000000000003                   59.07
   315   1      12.530000000000003      55.490000000000002      57.280000000000008
   316   1      10.740000000000004      53.700000000000003      60.860000000000007
   317   1      10.740000000000004      55.490000000000002      62.650000000000006
   318   1      12.530000000000003      53.700000000000003      62.650000000000006
   319   1      12.530000000000003      55.490000000000002      60.860000000000007
   320   1      10.740000000000004      53.700000000000003      64.439999999999998
   321   1      10.740000000000004      55.490000000000002      66.230000000000004
   322   1      12.530000000000003      53.700000000000003      66.230000000000004
   323   1      12.530000000000003      55.490000000000002      64.439999999999998
   324   1      10.740000000000004      53.700000000000003      68.019999999999996
   325   1      12.530000000000003      53.700000000000003      69.810000000000016
   326   1      12.530000000000003      55.490000000000002      68.019999999999996
   327   1      12.530000000000003      57.280000000000008      37.590000000000003
   328   1      10.740000000000004                   59.07      41.170000000000002
   329   1      12.530000000000003      57.280000000000008      41.170000000000002
   330   1      12.530000000000003                   59.07      39.380000000000003
   331   1      10.740000000000004      57.280000000000008      42.960000000000008
   332   1      10.740000000000004                   59.07      44.750000000000007
   333   1      12.530000000000003      57.280000000000008      44.750000000000007
   334   1      12.530000000000003                   59.07      42.960000000000008
   335   1      10.740000000000004      57.280000000000008      46.540000000000006
   336   1      10.740000000000004                   59.07      48.330000000000005
   337   1      12.530000000000003      57.280000000000008      48.330000000000005
   338   1      12.530000000000003                   59.07      46.540000000000006
   339   1      10.740000000000004      57.280000000000008      50.120000000000012
   340   1      10.740000000000004                   59.07      51.910000000000011
   341   1      12.530000000000003      57.280000000000008      51.910000000000011
   342   1      12.530000000000003                   59.07      50.120000000000012
   343   1      10.740000000000004      57.280000000000008      53.700000000000003
   344   1      10.740000000000004                   59.07      55.490000000000002
   345   1      12.530000000000003      57.280000000000008      55.490000000000002
   346   1      12.530000000000003                   59.07      53.700000000000003
   347   1      10.740000000000004      57.280000000000008      57.280000000000008
   348   1      10.740000000000004                   59.07                   59.07
   349   1      12.530000000000003      57.280000000000008                   59.07
   350   1      12.530000000000003                   59.07      57.280000000000008
   351   1      10.740000000000004      57.280000000000008      60.860000000000007
   352   1      10.740000000000004                   59.07      62.650000000000006
   353   1      12.530000000000003      57.280000000000008      62.650000000000006
   354   1      12.530000000000003                   59.07      60.860000000000007
   355   1      10.740000000000004      57.280000000000008      64.439999999999998
   356   1      10.740000000000004                   59.07      66.230000000000004
   357   1      12.530000000000003      57.280000000000008      66.230000000000004
   358   1      12.530000000000003                   59.07      64.439999999999998