model_files/Ag/Ag_30000/Ag_321/data.Ag_321_fcc_29817 (written by ASE) 

29817 	 atoms 
1  atom types
0.0                     114  xlo xhi
0.0                     114  ylo yhi
0.0                     114  zlo zhi


Atoms 

     1   1      2.0450000000000088      51.125000000000007      57.260000000000005
     2   1  1.4210854715202004e-14      55.215000000000011      55.215000000000011
     3   1      2.0450000000000088      53.170000000000009      55.215000000000011
     4   1      2.0450000000000088      55.215000000000011      53.170000000000009
     5   1  1.4210854715202004e-14      55.215000000000011      59.305000000000007
     6   1      2.0450000000000088      53.170000000000009      59.305000000000007
     7   1      2.0450000000000088      55.215000000000011      57.260000000000005
     8   1      2.0450000000000088      55.215000000000011      61.350000000000009
     9   1      2.0450000000000088      57.260000000000005      51.125000000000007
    10   1  1.4210854715202004e-14      59.305000000000007      55.215000000000011
    11   1      2.0450000000000088      57.260000000000005      55.215000000000011
    12   1      2.0450000000000088      59.305000000000007      53.170000000000009
    13   1  1.4210854715202004e-14      57.260000000000005      57.260000000000005
    14   1  1.4210854715202004e-14      59.305000000000007      59.305000000000007
    15   1      2.0450000000000088      57.260000000000005      59.305000000000007
    16   1      2.0450000000000088      59.305000000000007      57.260000000000005
    17   1      2.0450000000000088      57.260000000000005       63.39500000000001
    18   1      2.0450000000000088      59.305000000000007      61.350000000000009
    19   1      2.0450000000000088      61.350000000000009      55.215000000000011
    20   1      2.0450000000000088      61.350000000000009      59.305000000000007
    21   1      2.0450000000000088       63.39500000000001      57.260000000000005
    22   1      6.1350000000000122      47.035000000000004      53.170000000000009
    23   1      6.1350000000000122      47.035000000000004      57.260000000000005
    24   1      6.1350000000000122      47.035000000000004      61.350000000000009
    25   1      4.0900000000000105      51.125000000000007      51.125000000000007
    26   1      6.1350000000000122      49.080000000000005      51.125000000000007
    27   1      6.1350000000000122      51.125000000000007      49.080000000000005
    28   1      4.0900000000000105      51.125000000000007      55.215000000000011
    29   1      6.1350000000000122      49.080000000000005      55.215000000000011
    30   1      6.1350000000000122      51.125000000000007      53.170000000000009
    31   1      4.0900000000000105      49.080000000000005      57.260000000000005
    32   1      4.0900000000000105      51.125000000000007      59.305000000000007
    33   1      6.1350000000000122      49.080000000000005      59.305000000000007
    34   1      6.1350000000000122      51.125000000000007      57.260000000000005
    35   1      4.0900000000000105      51.125000000000007       63.39500000000001
    36   1      6.1350000000000122      49.080000000000005       63.39500000000001
    37   1      6.1350000000000122      51.125000000000007      61.350000000000009
    38   1      6.1350000000000122      51.125000000000007      65.440000000000012
    39   1      6.1350000000000122      53.170000000000009      47.035000000000004
    40   1      4.0900000000000105      55.215000000000011      51.125000000000007
    41   1      6.1350000000000122      53.170000000000009      51.125000000000007
    42   1      6.1350000000000122      55.215000000000011      49.080000000000005
    43   1      4.0900000000000105      53.170000000000009      53.170000000000009
    44   1      4.0900000000000105      55.215000000000011      55.215000000000011
    45   1      6.1350000000000122      53.170000000000009      55.215000000000011
    46   1      6.1350000000000122      55.215000000000011      53.170000000000009
    47   1      4.0900000000000105      53.170000000000009      57.260000000000005
    48   1      4.0900000000000105      55.215000000000011      59.305000000000007
    49   1      6.1350000000000122      53.170000000000009      59.305000000000007
    50   1      6.1350000000000122      55.215000000000011      57.260000000000005
    51   1      4.0900000000000105      53.170000000000009      61.350000000000009
    52   1      4.0900000000000105      55.215000000000011       63.39500000000001
    53   1      6.1350000000000122      53.170000000000009       63.39500000000001
    54   1      6.1350000000000122      55.215000000000011      61.350000000000009
    55   1      6.1350000000000122      53.170000000000009      67.485000000000014
    56   1      6.1350000000000122      55.215000000000011      65.440000000000012
    57   1      6.1350000000000122      57.260000000000005      47.035000000000004
    58   1      4.0900000000000105      57.260000000000005      49.080000000000005
    59   1      4.0900000000000105      59.305000000000007      51.125000000000007
    60   1      6.1350000000000122      57.260000000000005      51.125000000000007
    61   1      6.1350000000000122      59.305000000000007      49.080000000000005
    62   1      4.0900000000000105      57.260000000000005      53.170000000000009
    63   1      4.0900000000000105      59.305000000000007      55.215000000000011
    64   1      6.1350000000000122      57.260000000000005      55.215000000000011
    65   1      6.1350000000000122      59.305000000000007      53.170000000000009
    66   1      4.0900000000000105      57.260000000000005      57.260000000000005
    67   1      4.0900000000000105      59.305000000000007      59.305000000000007
    68   1      6.1350000000000122      57.260000000000005      59.305000000000007
    69   1      6.1350000000000122      59.305000000000007      57.260000000000005
    70   1      4.0900000000000105      57.260000000000005      61.350000000000009
    71   1      4.0900000000000105      59.305000000000007       63.39500000000001
    72   1      6.1350000000000122      57.260000000000005       63.39500000000001
    73   1      6.1350000000000122      59.305000000000007      61.350000000000009
    74   1      4.0900000000000105      57.260000000000005      65.440000000000012
    75   1      6.1350000000000122      57.260000000000005      67.485000000000014
    76   1      6.1350000000000122      59.305000000000007      65.440000000000012
    77   1      6.1350000000000122      61.350000000000009      47.035000000000004
    78   1      4.0900000000000105       63.39500000000001      51.125000000000007
    79   1      6.1350000000000122      61.350000000000009      51.125000000000007
    80   1      6.1350000000000122       63.39500000000001      49.080000000000005
    81   1      4.0900000000000105      61.350000000000009      53.170000000000009
    82   1      4.0900000000000105       63.39500000000001      55.215000000000011
    83   1      6.1350000000000122      61.350000000000009      55.215000000000011
    84   1      6.1350000000000122       63.39500000000001      53.170000000000009
    85   1      4.0900000000000105      61.350000000000009      57.260000000000005
    86   1      4.0900000000000105       63.39500000000001      59.305000000000007
    87   1      6.1350000000000122      61.350000000000009      59.305000000000007
    88   1      6.1350000000000122       63.39500000000001      57.260000000000005
    89   1      4.0900000000000105      61.350000000000009      61.350000000000009
    90   1      4.0900000000000105       63.39500000000001       63.39500000000001
    91   1      6.1350000000000122      61.350000000000009       63.39500000000001
    92   1      6.1350000000000122       63.39500000000001      61.350000000000009
    93   1      6.1350000000000122      61.350000000000009      67.485000000000014
    94   1      6.1350000000000122       63.39500000000001      65.440000000000012
    95   1      6.1350000000000122      65.440000000000012      51.125000000000007
    96   1      6.1350000000000122      65.440000000000012      55.215000000000011
    97   1      6.1350000000000122      67.485000000000014      53.170000000000009
    98   1      4.0900000000000105      65.440000000000012      57.260000000000005
    99   1      6.1350000000000122      65.440000000000012      59.305000000000007
   100   1      6.1350000000000122      67.485000000000014      57.260000000000005
   101   1      6.1350000000000122      65.440000000000012       63.39500000000001
   102   1      6.1350000000000122      67.485000000000014      61.350000000000009
   103   1      10.225000000000009      38.855000000000011      57.260000000000005
   104   1      10.225000000000009                  42.945      49.080000000000005
   105   1      8.1800000000000068                  42.945      55.215000000000011
   106   1      10.225000000000009      40.899999999999999      55.215000000000011
   107   1      10.225000000000009                  42.945      53.170000000000009
   108   1      8.1800000000000068                  42.945      59.305000000000007
   109   1      10.225000000000009      40.899999999999999      59.305000000000007
   110   1      10.225000000000009                  42.945      57.260000000000005
   111   1      10.225000000000009                  42.945      61.350000000000009
   112   1      10.225000000000009                  42.945      65.440000000000012
   113   1      8.1800000000000068      47.035000000000004      47.035000000000004
   114   1      10.225000000000009      44.990000000000002      47.035000000000004
   115   1      10.225000000000009      47.035000000000004      44.990000000000002
   116   1      8.1800000000000068      47.035000000000004      51.125000000000007
   117   1      10.225000000000009      44.990000000000002      51.125000000000007
   118   1      10.225000000000009      47.035000000000004      49.080000000000005
   119   1      8.1800000000000068      44.990000000000002      53.170000000000009
   120   1      8.1800000000000068      47.035000000000004      55.215000000000011
   121   1      10.225000000000009      44.990000000000002      55.215000000000011
   122   1      10.225000000000009      47.035000000000004      53.170000000000009
   123   1      8.1800000000000068      44.990000000000002      57.260000000000005
   124   1      8.1800000000000068      47.035000000000004      59.305000000000007
   125   1      10.225000000000009      44.990000000000002      59.305000000000007
   126   1      10.225000000000009      47.035000000000004      57.260000000000005
   127   1      8.1800000000000068      44.990000000000002      61.350000000000009
   128   1      8.1800000000000068      47.035000000000004       63.39500000000001
   129   1      10.225000000000009      44.990000000000002       63.39500000000001
   130   1      10.225000000000009      47.035000000000004      61.350000000000009
   131   1      8.1800000000000068      47.035000000000004      67.485000000000014
   132   1      10.225000000000009      44.990000000000002      67.485000000000014
   133   1      10.225000000000009      47.035000000000004      65.440000000000012
   134   1      10.225000000000009      47.035000000000004      69.530000000000015
   135   1      10.225000000000009      49.080000000000005                  42.945
   136   1      8.1800000000000068      51.125000000000007      47.035000000000004
   137   1      10.225000000000009      49.080000000000005      47.035000000000004
   138   1      10.225000000000009      51.125000000000007      44.990000000000002
   139   1      8.1800000000000068      49.080000000000005      49.080000000000005
   140   1      8.1800000000000068      51.125000000000007      51.125000000000007
   141   1      10.225000000000009      49.080000000000005      51.125000000000007
   142   1      10.225000000000009      51.125000000000007      49.080000000000005
   143   1      8.1800000000000068      49.080000000000005      53.170000000000009
   144   1      8.1800000000000068      51.125000000000007      55.215000000000011
   145   1      10.225000000000009      49.080000000000005      55.215000000000011
   146   1      10.225000000000009      51.125000000000007      53.170000000000009
   147   1      8.1800000000000068      49.080000000000005      57.260000000000005
   148   1      8.1800000000000068      51.125000000000007      59.305000000000007
   149   1      10.225000000000009      49.080000000000005      59.305000000000007
   150   1      10.225000000000009      51.125000000000007      57.260000000000005
   151   1      8.1800000000000068      49.080000000000005      61.350000000000009
   152   1      8.1800000000000068      51.125000000000007       63.39500000000001
   153   1      10.225000000000009      49.080000000000005       63.39500000000001
   154   1      10.225000000000009      51.125000000000007      61.350000000000009
   155   1      8.1800000000000068      49.080000000000005      65.440000000000012
   156   1      8.1800000000000068      51.125000000000007      67.485000000000014
   157   1      10.225000000000009      49.080000000000005      67.485000000000014
   158   1      10.225000000000009      51.125000000000007      65.440000000000012
   159   1      10.225000000000009      49.080000000000005      71.575000000000017
   160   1      10.225000000000009      51.125000000000007      69.530000000000015
   161   1      8.1800000000000068      55.215000000000011                  42.945
   162   1      10.225000000000009      53.170000000000009                  42.945
   163   1      10.225000000000009      55.215000000000011      40.899999999999999
   164   1      8.1800000000000068      53.170000000000009      44.990000000000002
   165   1      8.1800000000000068      55.215000000000011      47.035000000000004
   166   1      10.225000000000009      53.170000000000009      47.035000000000004
   167   1      10.225000000000009      55.215000000000011      44.990000000000002
   168   1      8.1800000000000068      53.170000000000009      49.080000000000005
   169   1      8.1800000000000068      55.215000000000011      51.125000000000007
   170   1      10.225000000000009      53.170000000000009      51.125000000000007
   171   1      10.225000000000009      55.215000000000011      49.080000000000005
   172   1      8.1800000000000068      53.170000000000009      53.170000000000009
   173   1      8.1800000000000068      55.215000000000011      55.215000000000011
   174   1      10.225000000000009      53.170000000000009      55.215000000000011
   175   1      10.225000000000009      55.215000000000011      53.170000000000009
   176   1      8.1800000000000068      53.170000000000009      57.260000000000005
   177   1      8.1800000000000068      55.215000000000011      59.305000000000007
   178   1      10.225000000000009      53.170000000000009      59.305000000000007
   179   1      10.225000000000009      55.215000000000011      57.260000000000005
   180   1      8.1800000000000068      53.170000000000009      61.350000000000009
   181   1      8.1800000000000068      55.215000000000011       63.39500000000001
   182   1      10.225000000000009      53.170000000000009       63.39500000000001
   183   1      10.225000000000009      55.215000000000011      61.350000000000009
   184   1      8.1800000000000068      53.170000000000009      65.440000000000012
   185   1      8.1800000000000068      55.215000000000011      67.485000000000014
   186   1      10.225000000000009      53.170000000000009      67.485000000000014
   187   1      10.225000000000009      55.215000000000011      65.440000000000012
   188   1      8.1800000000000068      53.170000000000009      69.530000000000015
   189   1      8.1800000000000068      55.215000000000011      71.575000000000017
   190   1      10.225000000000009      53.170000000000009      71.575000000000017
   191   1      10.225000000000009      55.215000000000011      69.530000000000015
   192   1      10.225000000000009      55.215000000000011      73.620000000000005
   193   1      10.225000000000009      57.260000000000005      38.855000000000011
   194   1      8.1800000000000068      59.305000000000007                  42.945
   195   1      10.225000000000009      57.260000000000005                  42.945
   196   1      10.225000000000009      59.305000000000007      40.899999999999999
   197   1      8.1800000000000068      57.260000000000005      44.990000000000002
   198   1      8.1800000000000068      59.305000000000007      47.035000000000004
   199   1      10.225000000000009      57.260000000000005      47.035000000000004
   200   1      10.225000000000009      59.305000000000007      44.990000000000002
   201   1      8.1800000000000068      57.260000000000005      49.080000000000005
   202   1      8.1800000000000068      59.305000000000007      51.125000000000007
   203   1      10.225000000000009      57.260000000000005      51.125000000000007
   204   1      10.225000000000009      59.305000000000007      49.080000000000005
   205   1      8.1800000000000068      57.260000000000005      53.170000000000009
   206   1      8.1800000000000068      59.305000000000007      55.215000000000011
   207   1      10.225000000000009      57.260000000000005      55.215000000000011
   208   1      10.225000000000009      59.305000000000007      53.170000000000009
   209   1      8.1800000000000068      57.260000000000005      57.260000000000005
   210   1      8.1800000000000068      59.305000000000007      59.305000000000007
   211   1      10.225000000000009      57.260000000000005      59.305000000000007
   212   1      10.225000000000009      59.305000000000007      57.260000000000005
   213   1      8.1800000000000068      57.260000000000005      61.350000000000009
   214   1      8.1800000000000068      59.305000000000007       63.39500000000001
   215   1      10.225000000000009      57.260000000000005       63.39500000000001
   216   1      10.225000000000009      59.305000000000007      61.350000000000009
   217   1      8.1800000000000068      57.260000000000005      65.440000000000012
   218   1      8.1800000000000068      59.305000000000007      67.485000000000014
   219   1      10.225000000000009      57.260000000000005      67.485000000000014
   220   1      10.225000000000009      59.305000000000007      65.440000000000012
   221   1      8.1800000000000068      57.260000000000005      69.530000000000015
   222   1      8.1800000000000068      59.305000000000007      71.575000000000017
   223   1      10.225000000000009      57.260000000000005      71.575000000000017
   224   1      10.225000000000009      59.305000000000007      69.530000000000015
   225   1      10.225000000000009      57.260000000000005      75.665000000000006
   226   1      10.225000000000009      59.305000000000007      73.620000000000005
   227   1      10.225000000000009      61.350000000000009                  42.945
   228   1      8.1800000000000068      61.350000000000009      44.990000000000002
   229   1      8.1800000000000068       63.39500000000001      47.035000000000004
   230   1      10.225000000000009      61.350000000000009      47.035000000000004
   231   1      10.225000000000009       63.39500000000001      44.990000000000002
   232   1      8.1800000000000068      61.350000000000009      49.080000000000005
   233   1      8.1800000000000068       63.39500000000001      51.125000000000007
   234   1      10.225000000000009      61.350000000000009      51.125000000000007
   235   1      10.225000000000009       63.39500000000001      49.080000000000005
   236   1      8.1800000000000068      61.350000000000009      53.170000000000009
   237   1      8.1800000000000068       63.39500000000001      55.215000000000011
   238   1      10.225000000000009      61.350000000000009      55.215000000000011
   239   1      10.225000000000009       63.39500000000001      53.170000000000009
   240   1      8.1800000000000068      61.350000000000009      57.260000000000005
   241   1      8.1800000000000068       63.39500000000001      59.305000000000007
   242   1      10.225000000000009      61.350000000000009      59.305000000000007
   243   1      10.225000000000009       63.39500000000001      57.260000000000005
   244   1      8.1800000000000068      61.350000000000009      61.350000000000009
   245   1      8.1800000000000068       63.39500000000001       63.39500000000001
   246   1      10.225000000000009      61.350000000000009       63.39500000000001
   247   1      10.225000000000009       63.39500000000001      61.350000000000009
   248   1      8.1800000000000068      61.350000000000009      65.440000000000012
   249   1      8.1800000000000068       63.39500000000001      67.485000000000014
   250   1      10.225000000000009      61.350000000000009      67.485000000000014
   251   1      10.225000000000009       63.39500000000001      65.440000000000012
   252   1      8.1800000000000068      61.350000000000009      69.530000000000015
   253   1      10.225000000000009      61.350000000000009      71.575000000000017
   254   1      10.225000000000009       63.39500000000001      69.530000000000015
   255   1      10.225000000000009      65.440000000000012                  42.945
   256   1      8.1800000000000068      67.485000000000014      47.035000000000004
   257   1      10.225000000000009      65.440000000000012      47.035000000000004
   258   1      10.225000000000009      67.485000000000014      44.990000000000002
   259   1      8.1800000000000068      65.440000000000012      49.080000000000005
   260   1      8.1800000000000068      67.485000000000014      51.125000000000007
   261   1      10.225000000000009      65.440000000000012      51.125000000000007
   262   1      10.225000000000009      67.485000000000014      49.080000000000005
   263   1      8.1800000000000068      65.440000000000012      53.170000000000009
   264   1      8.1800000000000068      67.485000000000014      55.215000000000011
   265   1      10.225000000000009      65.440000000000012      55.215000000000011
   266   1      10.225000000000009      67.485000000000014      53.170000000000009
   267   1      8.1800000000000068      65.440000000000012      57.260000000000005
   268   1      8.1800000000000068      67.485000000000014      59.305000000000007
   269   1      10.225000000000009      65.440000000000012      59.305000000000007
   270   1      10.225000000000009      67.485000000000014      57.260000000000005
   271   1      8.1800000000000068      65.440000000000012      61.350000000000009
   272   1      8.1800000000000068      67.485000000000014       63.39500000000001
   273   1      10.225000000000009      65.440000000000012       63.39500000000001
   274   1      10.225000000000009      67.485000000000014      61.350000000000009
   275   1      8.1800000000000068      65.440000000000012      65.440000000000012
   276   1      8.1800000000000068      67.485000000000014      67.485000000000014
   277   1      10.225000000000009      65.440000000000012      67.485000000000014
   278   1      10.225000000000009      67.485000000000014      65.440000000000012
   279   1      10.225000000000009      65.440000000000012      71.575000000000017
   280   1      10.225000000000009      67.485000000000014      69.530000000000015
   281   1      10.225000000000009      69.530000000000015      47.035000000000004
   282   1      10.225000000000009      69.530000000000015      51.125000000000007
   283   1      10.225000000000009      71.575000000000017      49.080000000000005
   284   1      8.1800000000000068      69.530000000000015      53.170000000000009
   285   1      8.1800000000000068      71.575000000000017      55.215000000000011
   286   1      10.225000000000009      69.530000000000015      55.215000000000011
   287   1      10.225000000000009      71.575000000000017      53.170000000000009
   288   1      8.1800000000000068      69.530000000000015      57.260000000000005
   289   1      8.1800000000000068      71.575000000000017      59.305000000000007
   290   1      10.225000000000009      69.530000000000015      59.305000000000007
   291   1      10.225000000000009      71.575000000000017      57.260000000000005
   292   1      8.1800000000000068      69.530000000000015      61.350000000000009
   293   1      10.225000000000009      69.530000000000015       63.39500000000001
   294   1      10.225000000000009      71.575000000000017      61.350000000000009
   295   1      10.225000000000009      69.530000000000015      67.485000000000014
   296   1      10.225000000000009      71.575000000000017      65.440000000000012
   297   1      10.225000000000009      73.620000000000005      55.215000000000011
   298   1      10.225000000000009      73.620000000000005      59.305000000000007
   299   1      10.225000000000009      75.665000000000006      57.260000000000005
   300   1       14.31500000000001      34.765000000000015      53.170000000000009
   301   1       14.31500000000001      34.765000000000015      57.260000000000005
   302   1       14.31500000000001      34.765000000000015      61.350000000000009
   303   1       14.31500000000001      38.855000000000011      44.990000000000002
   304   1       12.27000000000001      38.855000000000011      51.125000000000007
   305   1       14.31500000000001      36.810000000000009      51.125000000000007
   306   1       14.31500000000001      38.855000000000011      49.080000000000005
   307   1       12.27000000000001      38.855000000000011      55.215000000000011
   308   1       14.31500000000001      36.810000000000009      55.215000000000011
   309   1       14.31500000000001      38.855000000000011      53.170000000000009
   310   1       12.27000000000001      36.810000000000009      57.260000000000005
   311   1       12.27000000000001      38.855000000000011      59.305000000000007
   312   1       14.31500000000001      36.810000000000009      59.305000000000007
   313   1       14.31500000000001      38.855000000000011      57.260000000000005
   314   1       12.27000000000001      38.855000000000011       63.39500000000001
   315   1       14.31500000000001      36.810000000000009       63.39500000000001
   316   1       14.31500000000001      38.855000000000011      61.350000000000009
   317   1       14.31500000000001      38.855000000000011      65.440000000000012
   318   1       14.31500000000001      38.855000000000011      69.530000000000015
   319   1       12.27000000000001                  42.945                  42.945
   320   1       14.31500000000001      40.899999999999999                  42.945
   321   1       14.31500000000001                  42.945      40.899999999999999
   322   1       12.27000000000001                  42.945      47.035000000000004
   323   1       14.31500000000001      40.899999999999999      47.035000000000004
   324   1       14.31500000000001                  42.945      44.990000000000002
   325   1       12.27000000000001      40.899999999999999      49.080000000000005
   326   1       12.27000000000001                  42.945      51.125000000000007
   327   1       14.31500000000001      40.899999999999999      51.125000000000007
   328   1       14.31500000000001                  42.945      49.080000000000005
   329   1       12.27000000000001      40.899999999999999      53.170000000000009
   330   1       12.27000000000001                  42.945      55.215000000000011
   331   1       14.31500000000001      40.899999999999999      55.215000000000011
   332   1       14.31500000000001                  42.945      53.170000000000009
   333   1       12.27000000000001      40.899999999999999      57.260000000000005
   334   1       12.27000000000001                  42.945      59.305000000000007
   335   1       14.31500000000001      40.899999999999999      59.305000000000007
   336   1       14.31500000000001                  42.945      57.260000000000005
   337   1       12.27000000000001      40.899999999999999      61.350000000000009
   338   1       12.27000000000001                  42.945       63.39500000000001
   339   1       14.31500000000001      40.899999999999999       63.39500000000001
   340   1       14.31500000000001                  42.945      61.350000000000009
   341   1       12.27000000000001      40.899999999999999      65.440000000000012
   342   1       12.27000000000001                  42.945      67.485000000000014
   343   1       14.31500000000001      40.899999999999999      67.485000000000014
   344   1       14.31500000000001                  42.945      65.440000000000012
   345   1       12.27000000000001                  42.945      71.575000000000017
   346   1       14.31500000000001      40.899999999999999      71.575000000000017
   347   1       14.31500000000001                  42.945      69.530000000000015
   348   1       14.31500000000001                  42.945      73.620000000000005
   349   1       14.31500000000001      44.990000000000002      38.855000000000011
   350   1       12.27000000000001      47.035000000000004                  42.945
   351   1       14.31500000000001      44.990000000000002                  42.945
   352   1       14.31500000000001      47.035000000000004      40.899999999999999
   353   1       12.27000000000001      44.990000000000002      44.990000000000002
   354   1       12.27000000000001      47.035000000000004      47.035000000000004
   355   1       14.31500000000001      44.990000000000002      47.035000000000004
   356   1       14.31500000000001      47.035000000000004      44.990000000000002
   357   1       12.27000000000001      44.990000000000002      49.080000000000005
   358   1       12.27000000000001      47.035000000000004      51.125000000000007