model_files/Pt/Pt_30000/Pt_522/data.Pt_522_fcc_30243 (written by ASE) 

30243 	 atoms 
1  atom types
0.0                     103  xlo xhi
0.0                     103  ylo yhi
0.0                     103  zlo zhi


Atoms 

     1   1      1.9600000000000148      45.080000000000005      50.960000000000001
     2   1      1.9600000000000148      47.040000000000006      49.000000000000014
     3   1      1.9600000000000148      49.000000000000014      47.040000000000006
     4   1      1.9600000000000148      47.040000000000006      52.920000000000009
     5   1      1.9600000000000148      49.000000000000014      50.960000000000001
     6   1      1.9600000000000148      49.000000000000014      54.880000000000003
     7   1      1.9600000000000148      50.960000000000001      45.080000000000005
     8   1      1.9600000000000148      50.960000000000001      49.000000000000014
     9   1      1.9600000000000148      52.920000000000009      47.040000000000006
    10   1  1.4210854715202002e-14      50.960000000000001      50.960000000000001
    11   1      1.9600000000000148      50.960000000000001      52.920000000000009
    12   1      1.9600000000000148      52.920000000000009      50.960000000000001
    13   1      1.9600000000000148      50.960000000000001      56.840000000000003
    14   1      1.9600000000000148      52.920000000000009      54.880000000000003
    15   1      1.9600000000000148      54.880000000000003      49.000000000000014
    16   1      1.9600000000000148      54.880000000000003      52.920000000000009
    17   1      1.9600000000000148      56.840000000000003      50.960000000000001
    18   1      5.8800000000000088      33.320000000000014      50.960000000000001
    19   1      5.8800000000000088      35.280000000000015      49.000000000000014
    20   1      5.8800000000000088      37.240000000000009      47.040000000000006
    21   1      5.8800000000000088      35.280000000000015      52.920000000000009
    22   1      5.8800000000000088      37.240000000000009      50.960000000000001
    23   1      5.8800000000000088      37.240000000000009      54.880000000000003
    24   1      5.8800000000000088       39.20000000000001      45.080000000000005
    25   1      5.8800000000000088      41.160000000000004      43.120000000000012
    26   1      3.9200000000000155      41.160000000000004      49.000000000000014
    27   1      5.8800000000000088       39.20000000000001      49.000000000000014
    28   1      5.8800000000000088      41.160000000000004      47.040000000000006
    29   1      3.9200000000000155       39.20000000000001      50.960000000000001
    30   1      3.9200000000000155      41.160000000000004      52.920000000000009
    31   1      5.8800000000000088       39.20000000000001      52.920000000000009
    32   1      5.8800000000000088      41.160000000000004      50.960000000000001
    33   1      5.8800000000000088       39.20000000000001      56.840000000000003
    34   1      5.8800000000000088      41.160000000000004      54.880000000000003
    35   1      5.8800000000000088      41.160000000000004      58.800000000000011
    36   1      5.8800000000000088      43.120000000000012      41.160000000000004
    37   1      5.8800000000000088      45.080000000000005       39.20000000000001
    38   1      3.9200000000000155      45.080000000000005      45.080000000000005
    39   1      5.8800000000000088      43.120000000000012      45.080000000000005
    40   1      5.8800000000000088      45.080000000000005      43.120000000000012
    41   1      3.9200000000000155      43.120000000000012      47.040000000000006
    42   1      3.9200000000000155      45.080000000000005      49.000000000000014
    43   1      5.8800000000000088      43.120000000000012      49.000000000000014
    44   1      5.8800000000000088      45.080000000000005      47.040000000000006
    45   1      3.9200000000000155      43.120000000000012      50.960000000000001
    46   1      3.9200000000000155      45.080000000000005      52.920000000000009
    47   1      5.8800000000000088      43.120000000000012      52.920000000000009
    48   1      5.8800000000000088      45.080000000000005      50.960000000000001
    49   1      3.9200000000000155      43.120000000000012      54.880000000000003
    50   1      3.9200000000000155      45.080000000000005      56.840000000000003
    51   1      5.8800000000000088      43.120000000000012      56.840000000000003
    52   1      5.8800000000000088      45.080000000000005      54.880000000000003
    53   1      5.8800000000000088      43.120000000000012      60.759999999999998
    54   1      5.8800000000000088      45.080000000000005      58.800000000000011
    55   1      5.8800000000000088      45.080000000000005      62.720000000000006
    56   1      5.8800000000000088      47.040000000000006      37.240000000000009
    57   1      5.8800000000000088      49.000000000000014      35.280000000000015
    58   1      3.9200000000000155      49.000000000000014      41.160000000000004
    59   1      5.8800000000000088      47.040000000000006      41.160000000000004
    60   1      5.8800000000000088      49.000000000000014       39.20000000000001
    61   1      3.9200000000000155      47.040000000000006      43.120000000000012
    62   1      3.9200000000000155      49.000000000000014      45.080000000000005
    63   1      5.8800000000000088      47.040000000000006      45.080000000000005
    64   1      5.8800000000000088      49.000000000000014      43.120000000000012
    65   1      3.9200000000000155      47.040000000000006      47.040000000000006
    66   1      3.9200000000000155      49.000000000000014      49.000000000000014
    67   1      5.8800000000000088      47.040000000000006      49.000000000000014
    68   1      5.8800000000000088      49.000000000000014      47.040000000000006
    69   1      3.9200000000000155      47.040000000000006      50.960000000000001
    70   1      3.9200000000000155      49.000000000000014      52.920000000000009
    71   1      5.8800000000000088      47.040000000000006      52.920000000000009
    72   1      5.8800000000000088      49.000000000000014      50.960000000000001
    73   1      3.9200000000000155      47.040000000000006      54.880000000000003
    74   1      3.9200000000000155      49.000000000000014      56.840000000000003
    75   1      5.8800000000000088      47.040000000000006      56.840000000000003
    76   1      5.8800000000000088      49.000000000000014      54.880000000000003
    77   1      3.9200000000000155      47.040000000000006      58.800000000000011
    78   1      3.9200000000000155      49.000000000000014      60.759999999999998
    79   1      5.8800000000000088      47.040000000000006      60.759999999999998
    80   1      5.8800000000000088      49.000000000000014      58.800000000000011
    81   1      5.8800000000000088      47.040000000000006      64.680000000000007
    82   1      5.8800000000000088      49.000000000000014      62.720000000000006
    83   1      5.8800000000000088      49.000000000000014      66.640000000000015
    84   1      5.8800000000000088      50.960000000000001      33.320000000000014
    85   1      5.8800000000000088      50.960000000000001      37.240000000000009
    86   1      5.8800000000000088      52.920000000000009      35.280000000000015
    87   1      3.9200000000000155      50.960000000000001       39.20000000000001
    88   1      3.9200000000000155      52.920000000000009      41.160000000000004
    89   1      5.8800000000000088      50.960000000000001      41.160000000000004
    90   1      5.8800000000000088      52.920000000000009       39.20000000000001
    91   1      3.9200000000000155      50.960000000000001      43.120000000000012
    92   1      3.9200000000000155      52.920000000000009      45.080000000000005
    93   1      5.8800000000000088      50.960000000000001      45.080000000000005
    94   1      5.8800000000000088      52.920000000000009      43.120000000000012
    95   1      3.9200000000000155      50.960000000000001      47.040000000000006
    96   1      3.9200000000000155      52.920000000000009      49.000000000000014
    97   1      5.8800000000000088      50.960000000000001      49.000000000000014
    98   1      5.8800000000000088      52.920000000000009      47.040000000000006
    99   1      3.9200000000000155      50.960000000000001      50.960000000000001
   100   1      3.9200000000000155      52.920000000000009      52.920000000000009
   101   1      5.8800000000000088      50.960000000000001      52.920000000000009
   102   1      5.8800000000000088      52.920000000000009      50.960000000000001
   103   1      3.9200000000000155      50.960000000000001      54.880000000000003
   104   1      3.9200000000000155      52.920000000000009      56.840000000000003
   105   1      5.8800000000000088      50.960000000000001      56.840000000000003
   106   1      5.8800000000000088      52.920000000000009      54.880000000000003
   107   1      3.9200000000000155      50.960000000000001      58.800000000000011
   108   1      3.9200000000000155      52.920000000000009      60.759999999999998
   109   1      5.8800000000000088      50.960000000000001      60.759999999999998
   110   1      5.8800000000000088      52.920000000000009      58.800000000000011
   111   1      3.9200000000000155      50.960000000000001      62.720000000000006
   112   1      5.8800000000000088      50.960000000000001      64.680000000000007
   113   1      5.8800000000000088      52.920000000000009      62.720000000000006
   114   1      5.8800000000000088      50.960000000000001      68.599999999999994
   115   1      5.8800000000000088      52.920000000000009      66.640000000000015
   116   1      5.8800000000000088      54.880000000000003      37.240000000000009
   117   1      5.8800000000000088      54.880000000000003      41.160000000000004
   118   1      5.8800000000000088      56.840000000000003       39.20000000000001
   119   1      3.9200000000000155      54.880000000000003      43.120000000000012
   120   1      3.9200000000000155      56.840000000000003      45.080000000000005
   121   1      5.8800000000000088      54.880000000000003      45.080000000000005
   122   1      5.8800000000000088      56.840000000000003      43.120000000000012
   123   1      3.9200000000000155      54.880000000000003      47.040000000000006
   124   1      3.9200000000000155      56.840000000000003      49.000000000000014
   125   1      5.8800000000000088      54.880000000000003      49.000000000000014
   126   1      5.8800000000000088      56.840000000000003      47.040000000000006
   127   1      3.9200000000000155      54.880000000000003      50.960000000000001
   128   1      3.9200000000000155      56.840000000000003      52.920000000000009
   129   1      5.8800000000000088      54.880000000000003      52.920000000000009
   130   1      5.8800000000000088      56.840000000000003      50.960000000000001
   131   1      3.9200000000000155      54.880000000000003      54.880000000000003
   132   1      3.9200000000000155      56.840000000000003      56.840000000000003
   133   1      5.8800000000000088      54.880000000000003      56.840000000000003
   134   1      5.8800000000000088      56.840000000000003      54.880000000000003
   135   1      3.9200000000000155      54.880000000000003      58.800000000000011
   136   1      5.8800000000000088      54.880000000000003      60.759999999999998
   137   1      5.8800000000000088      56.840000000000003      58.800000000000011
   138   1      5.8800000000000088      54.880000000000003      64.680000000000007
   139   1      5.8800000000000088      56.840000000000003      62.720000000000006
   140   1      5.8800000000000088      58.800000000000011      41.160000000000004
   141   1      5.8800000000000088      58.800000000000011      45.080000000000005
   142   1      5.8800000000000088      60.759999999999998      43.120000000000012
   143   1      3.9200000000000155      58.800000000000011      47.040000000000006
   144   1      3.9200000000000155      60.759999999999998      49.000000000000014
   145   1      5.8800000000000088      58.800000000000011      49.000000000000014
   146   1      5.8800000000000088      60.759999999999998      47.040000000000006
   147   1      3.9200000000000155      58.800000000000011      50.960000000000001
   148   1      3.9200000000000155      60.759999999999998      52.920000000000009
   149   1      5.8800000000000088      58.800000000000011      52.920000000000009
   150   1      5.8800000000000088      60.759999999999998      50.960000000000001
   151   1      3.9200000000000155      58.800000000000011      54.880000000000003
   152   1      5.8800000000000088      58.800000000000011      56.840000000000003
   153   1      5.8800000000000088      60.759999999999998      54.880000000000003
   154   1      5.8800000000000088      58.800000000000011      60.759999999999998
   155   1      5.8800000000000088      60.759999999999998      58.800000000000011
   156   1      5.8800000000000088      62.720000000000006      45.080000000000005
   157   1      5.8800000000000088      62.720000000000006      49.000000000000014
   158   1      5.8800000000000088      64.680000000000007      47.040000000000006
   159   1      3.9200000000000155      62.720000000000006      50.960000000000001
   160   1      5.8800000000000088      62.720000000000006      52.920000000000009
   161   1      5.8800000000000088      64.680000000000007      50.960000000000001
   162   1      5.8800000000000088      62.720000000000006      56.840000000000003
   163   1      5.8800000000000088      64.680000000000007      54.880000000000003
   164   1      5.8800000000000088      66.640000000000015      49.000000000000014
   165   1      5.8800000000000088      66.640000000000015      52.920000000000009
   166   1      5.8800000000000088      68.599999999999994      50.960000000000001
   167   1      9.8000000000000114      25.480000000000008      50.960000000000001
   168   1      9.8000000000000114      27.440000000000008      49.000000000000014
   169   1      9.8000000000000114      29.400000000000009      47.040000000000006
   170   1      9.8000000000000114      27.440000000000008      52.920000000000009
   171   1      9.8000000000000114      29.400000000000009      50.960000000000001
   172   1      9.8000000000000114      29.400000000000009      54.880000000000003
   173   1      9.8000000000000114      31.360000000000007      45.080000000000005
   174   1      9.8000000000000114      33.320000000000014      43.120000000000012
   175   1      7.8400000000000096      33.320000000000014      49.000000000000014
   176   1      9.8000000000000114      31.360000000000007      49.000000000000014
   177   1      9.8000000000000114      33.320000000000014      47.040000000000006
   178   1      7.8400000000000096      31.360000000000007      50.960000000000001
   179   1      7.8400000000000096      33.320000000000014      52.920000000000009
   180   1      9.8000000000000114      31.360000000000007      52.920000000000009
   181   1      9.8000000000000114      33.320000000000014      50.960000000000001
   182   1      9.8000000000000114      31.360000000000007      56.840000000000003
   183   1      9.8000000000000114      33.320000000000014      54.880000000000003
   184   1      9.8000000000000114      33.320000000000014      58.800000000000011
   185   1      9.8000000000000114      35.280000000000015      41.160000000000004
   186   1      9.8000000000000114      37.240000000000009       39.20000000000001
   187   1      7.8400000000000096      37.240000000000009      45.080000000000005
   188   1      9.8000000000000114      35.280000000000015      45.080000000000005
   189   1      9.8000000000000114      37.240000000000009      43.120000000000012
   190   1      7.8400000000000096      35.280000000000015      47.040000000000006
   191   1      7.8400000000000096      37.240000000000009      49.000000000000014
   192   1      9.8000000000000114      35.280000000000015      49.000000000000014
   193   1      9.8000000000000114      37.240000000000009      47.040000000000006
   194   1      7.8400000000000096      35.280000000000015      50.960000000000001
   195   1      7.8400000000000096      37.240000000000009      52.920000000000009
   196   1      9.8000000000000114      35.280000000000015      52.920000000000009
   197   1      9.8000000000000114      37.240000000000009      50.960000000000001
   198   1      7.8400000000000096      35.280000000000015      54.880000000000003
   199   1      7.8400000000000096      37.240000000000009      56.840000000000003
   200   1      9.8000000000000114      35.280000000000015      56.840000000000003
   201   1      9.8000000000000114      37.240000000000009      54.880000000000003
   202   1      9.8000000000000114      35.280000000000015      60.759999999999998
   203   1      9.8000000000000114      37.240000000000009      58.800000000000011
   204   1      9.8000000000000114      37.240000000000009      62.720000000000006
   205   1      9.8000000000000114       39.20000000000001      37.240000000000009
   206   1      9.8000000000000114      41.160000000000004      35.280000000000015
   207   1      7.8400000000000096      41.160000000000004      41.160000000000004
   208   1      9.8000000000000114       39.20000000000001      41.160000000000004
   209   1      9.8000000000000114      41.160000000000004       39.20000000000001
   210   1      7.8400000000000096       39.20000000000001      43.120000000000012
   211   1      7.8400000000000096      41.160000000000004      45.080000000000005
   212   1      9.8000000000000114       39.20000000000001      45.080000000000005
   213   1      9.8000000000000114      41.160000000000004      43.120000000000012
   214   1      7.8400000000000096       39.20000000000001      47.040000000000006
   215   1      7.8400000000000096      41.160000000000004      49.000000000000014
   216   1      9.8000000000000114       39.20000000000001      49.000000000000014
   217   1      9.8000000000000114      41.160000000000004      47.040000000000006
   218   1      7.8400000000000096       39.20000000000001      50.960000000000001
   219   1      7.8400000000000096      41.160000000000004      52.920000000000009
   220   1      9.8000000000000114       39.20000000000001      52.920000000000009
   221   1      9.8000000000000114      41.160000000000004      50.960000000000001
   222   1      7.8400000000000096       39.20000000000001      54.880000000000003
   223   1      7.8400000000000096      41.160000000000004      56.840000000000003
   224   1      9.8000000000000114       39.20000000000001      56.840000000000003
   225   1      9.8000000000000114      41.160000000000004      54.880000000000003
   226   1      7.8400000000000096       39.20000000000001      58.800000000000011
   227   1      7.8400000000000096      41.160000000000004      60.759999999999998
   228   1      9.8000000000000114       39.20000000000001      60.759999999999998
   229   1      9.8000000000000114      41.160000000000004      58.800000000000011
   230   1      9.8000000000000114       39.20000000000001      64.680000000000007
   231   1      9.8000000000000114      41.160000000000004      62.720000000000006
   232   1      9.8000000000000114      41.160000000000004      66.640000000000015
   233   1      9.8000000000000114      43.120000000000012      33.320000000000014
   234   1      9.8000000000000114      45.080000000000005      31.360000000000007
   235   1      7.8400000000000096      45.080000000000005      37.240000000000009
   236   1      9.8000000000000114      43.120000000000012      37.240000000000009
   237   1      9.8000000000000114      45.080000000000005      35.280000000000015
   238   1      7.8400000000000096      43.120000000000012       39.20000000000001
   239   1      7.8400000000000096      45.080000000000005      41.160000000000004
   240   1      9.8000000000000114      43.120000000000012      41.160000000000004
   241   1      9.8000000000000114      45.080000000000005       39.20000000000001
   242   1      7.8400000000000096      43.120000000000012      43.120000000000012
   243   1      7.8400000000000096      45.080000000000005      45.080000000000005
   244   1      9.8000000000000114      43.120000000000012      45.080000000000005
   245   1      9.8000000000000114      45.080000000000005      43.120000000000012
   246   1      7.8400000000000096      43.120000000000012      47.040000000000006
   247   1      7.8400000000000096      45.080000000000005      49.000000000000014
   248   1      9.8000000000000114      43.120000000000012      49.000000000000014
   249   1      9.8000000000000114      45.080000000000005      47.040000000000006
   250   1      7.8400000000000096      43.120000000000012      50.960000000000001
   251   1      7.8400000000000096      45.080000000000005      52.920000000000009
   252   1      9.8000000000000114      43.120000000000012      52.920000000000009
   253   1      9.8000000000000114      45.080000000000005      50.960000000000001
   254   1      7.8400000000000096      43.120000000000012      54.880000000000003
   255   1      7.8400000000000096      45.080000000000005      56.840000000000003
   256   1      9.8000000000000114      43.120000000000012      56.840000000000003
   257   1      9.8000000000000114      45.080000000000005      54.880000000000003
   258   1      7.8400000000000096      43.120000000000012      58.800000000000011
   259   1      7.8400000000000096      45.080000000000005      60.759999999999998
   260   1      9.8000000000000114      43.120000000000012      60.759999999999998
   261   1      9.8000000000000114      45.080000000000005      58.800000000000011
   262   1      7.8400000000000096      43.120000000000012      62.720000000000006
   263   1      7.8400000000000096      45.080000000000005      64.680000000000007
   264   1      9.8000000000000114      43.120000000000012      64.680000000000007
   265   1      9.8000000000000114      45.080000000000005      62.720000000000006
   266   1      9.8000000000000114      43.120000000000012      68.599999999999994
   267   1      9.8000000000000114      45.080000000000005      66.640000000000015
   268   1      9.8000000000000114      45.080000000000005      70.560000000000002
   269   1      9.8000000000000114      47.040000000000006      29.400000000000009
   270   1      9.8000000000000114      49.000000000000014      27.440000000000008
   271   1      7.8400000000000096      49.000000000000014      33.320000000000014
   272   1      9.8000000000000114      47.040000000000006      33.320000000000014
   273   1      9.8000000000000114      49.000000000000014      31.360000000000007
   274   1      7.8400000000000096      47.040000000000006      35.280000000000015
   275   1      7.8400000000000096      49.000000000000014      37.240000000000009
   276   1      9.8000000000000114      47.040000000000006      37.240000000000009
   277   1      9.8000000000000114      49.000000000000014      35.280000000000015
   278   1      7.8400000000000096      47.040000000000006       39.20000000000001
   279   1      7.8400000000000096      49.000000000000014      41.160000000000004
   280   1      9.8000000000000114      47.040000000000006      41.160000000000004
   281   1      9.8000000000000114      49.000000000000014       39.20000000000001
   282   1      7.8400000000000096      47.040000000000006      43.120000000000012
   283   1      7.8400000000000096      49.000000000000014      45.080000000000005
   284   1      9.8000000000000114      47.040000000000006      45.080000000000005
   285   1      9.8000000000000114      49.000000000000014      43.120000000000012
   286   1      7.8400000000000096      47.040000000000006      47.040000000000006
   287   1      7.8400000000000096      49.000000000000014      49.000000000000014
   288   1      9.8000000000000114      47.040000000000006      49.000000000000014
   289   1      9.8000000000000114      49.000000000000014      47.040000000000006
   290   1      7.8400000000000096      47.040000000000006      50.960000000000001
   291   1      7.8400000000000096      49.000000000000014      52.920000000000009
   292   1      9.8000000000000114      47.040000000000006      52.920000000000009
   293   1      9.8000000000000114      49.000000000000014      50.960000000000001
   294   1      7.8400000000000096      47.040000000000006      54.880000000000003
   295   1      7.8400000000000096      49.000000000000014      56.840000000000003
   296   1      9.8000000000000114      47.040000000000006      56.840000000000003
   297   1      9.8000000000000114      49.000000000000014      54.880000000000003
   298   1      7.8400000000000096      47.040000000000006      58.800000000000011
   299   1      7.8400000000000096      49.000000000000014      60.759999999999998
   300   1      9.8000000000000114      47.040000000000006      60.759999999999998
   301   1      9.8000000000000114      49.000000000000014      58.800000000000011
   302   1      7.8400000000000096      47.040000000000006      62.720000000000006
   303   1      7.8400000000000096      49.000000000000014      64.680000000000007
   304   1      9.8000000000000114      47.040000000000006      64.680000000000007
   305   1      9.8000000000000114      49.000000000000014      62.720000000000006
   306   1      7.8400000000000096      47.040000000000006      66.640000000000015
   307   1      7.8400000000000096      49.000000000000014      68.599999999999994
   308   1      9.8000000000000114      47.040000000000006      68.599999999999994
   309   1      9.8000000000000114      49.000000000000014      66.640000000000015
   310   1      9.8000000000000114      47.040000000000006      72.519999999999996
   311   1      9.8000000000000114      49.000000000000014      70.560000000000002
   312   1      9.8000000000000114      49.000000000000014      74.480000000000018
   313   1      9.8000000000000114      50.960000000000001      25.480000000000008
   314   1      9.8000000000000114      50.960000000000001      29.400000000000009
   315   1      9.8000000000000114      52.920000000000009      27.440000000000008
   316   1      7.8400000000000096      50.960000000000001      31.360000000000007
   317   1      7.8400000000000096      52.920000000000009      33.320000000000014
   318   1      9.8000000000000114      50.960000000000001      33.320000000000014
   319   1      9.8000000000000114      52.920000000000009      31.360000000000007
   320   1      7.8400000000000096      50.960000000000001      35.280000000000015
   321   1      7.8400000000000096      52.920000000000009      37.240000000000009
   322   1      9.8000000000000114      50.960000000000001      37.240000000000009
   323   1      9.8000000000000114      52.920000000000009      35.280000000000015
   324   1      7.8400000000000096      50.960000000000001       39.20000000000001
   325   1      7.8400000000000096      52.920000000000009      41.160000000000004
   326   1      9.8000000000000114      50.960000000000001      41.160000000000004
   327   1      9.8000000000000114      52.920000000000009       39.20000000000001
   328   1      7.8400000000000096      50.960000000000001      43.120000000000012
   329   1      7.8400000000000096      52.920000000000009      45.080000000000005
   330   1      9.8000000000000114      50.960000000000001      45.080000000000005
   331   1      9.8000000000000114      52.920000000000009      43.120000000000012
   332   1      7.8400000000000096      50.960000000000001      47.040000000000006
   333   1      7.8400000000000096      52.920000000000009      49.000000000000014
   334   1      9.8000000000000114      50.960000000000001      49.000000000000014
   335   1      9.8000000000000114      52.920000000000009      47.040000000000006
   336   1      7.8400000000000096      50.960000000000001      50.960000000000001
   337   1      7.8400000000000096      52.920000000000009      52.920000000000009
   338   1      9.8000000000000114      50.960000000000001      52.920000000000009
   339   1      9.8000000000000114      52.920000000000009      50.960000000000001
   340   1      7.8400000000000096      50.960000000000001      54.880000000000003
   341   1      7.8400000000000096      52.920000000000009      56.840000000000003
   342   1      9.8000000000000114      50.960000000000001      56.840000000000003
   343   1      9.8000000000000114      52.920000000000009      54.880000000000003
   344   1      7.8400000000000096      50.960000000000001      58.800000000000011
   345   1      7.8400000000000096      52.920000000000009      60.759999999999998
   346   1      9.8000000000000114      50.960000000000001      60.759999999999998
   347   1      9.8000000000000114      52.920000000000009      58.800000000000011
   348   1      7.8400000000000096      50.960000000000001      62.720000000000006
   349   1      7.8400000000000096      52.920000000000009      64.680000000000007
   350   1      9.8000000000000114      50.960000000000001      64.680000000000007
   351   1      9.8000000000000114      52.920000000000009      62.720000000000006
   352   1      7.8400000000000096      50.960000000000001      66.640000000000015
   353   1      7.8400000000000096      52.920000000000009      68.599999999999994
   354   1      9.8000000000000114      50.960000000000001      68.599999999999994
   355   1      9.8000000000000114      52.920000000000009      66.640000000000015
   356   1      7.8400000000000096      50.960000000000001      70.560000000000002
   357   1      9.8000000000000114      50.960000000000001      72.519999999999996
   358   1      9.8000000000000114      52.920000000000009      70.560000000000002