model_files/PtCo/PtCo_30000/PtCo_441/PtCo_441_fcc_30129_temp.data (written by ASE) 

30129 	 atoms 
2  atom types
0.0                     116  xlo xhi
0.0                     116  ylo yhi
0.0                     116  zlo zhi


Atoms 

     1   1      1.8250000000000102       56.57500000000001      58.399999999999999
     2   1      1.8250000000000102      58.399999999999999       56.57500000000001
     3   1  7.1054273576010019e-15      58.399999999999999      58.399999999999999
     4   1      1.8250000000000102      58.399999999999999      60.225000000000001
     5   1      1.8250000000000102      60.225000000000001      58.399999999999999
     6   1      5.4750000000000085      52.925000000000011      58.399999999999999
     7   1      3.6500000000000057       56.57500000000001       56.57500000000001
     8   1      5.4750000000000085      54.750000000000007       56.57500000000001
     9   1      5.4750000000000085       56.57500000000001      54.750000000000007
    10   1      3.6500000000000057      54.750000000000007      58.399999999999999
    11   1      3.6500000000000057       56.57500000000001      60.225000000000001
    12   1      5.4750000000000085      54.750000000000007      60.225000000000001
    13   1      5.4750000000000085       56.57500000000001      58.399999999999999
    14   1      5.4750000000000085       56.57500000000001      62.050000000000004
    15   1      5.4750000000000085      58.399999999999999      52.925000000000011
    16   1      3.6500000000000057      58.399999999999999      54.750000000000007
    17   1      3.6500000000000057      60.225000000000001       56.57500000000001
    18   1      5.4750000000000085      58.399999999999999       56.57500000000001
    19   1      5.4750000000000085      60.225000000000001      54.750000000000007
    20   1      3.6500000000000057      58.399999999999999      58.399999999999999
    21   1      3.6500000000000057      60.225000000000001      60.225000000000001
    22   1      5.4750000000000085      58.399999999999999      60.225000000000001
    23   1      5.4750000000000085      60.225000000000001      58.399999999999999
    24   1      3.6500000000000057      58.399999999999999      62.050000000000004
    25   1      5.4750000000000085      58.399999999999999      63.875000000000007
    26   1      5.4750000000000085      60.225000000000001      62.050000000000004
    27   1      5.4750000000000085      62.050000000000004       56.57500000000001
    28   1      3.6500000000000057      62.050000000000004      58.399999999999999
    29   1      5.4750000000000085      62.050000000000004      60.225000000000001
    30   1      5.4750000000000085      63.875000000000007      58.399999999999999
    31   1      9.1250000000000071      49.275000000000013      58.399999999999999
    32   1      7.3000000000000114      52.925000000000011      52.925000000000011
    33   1      9.1250000000000071      51.100000000000009      52.925000000000011
    34   1      9.1250000000000071      52.925000000000011      51.100000000000009
    35   1      7.3000000000000114      52.925000000000011       56.57500000000001
    36   1      9.1250000000000071      51.100000000000009       56.57500000000001
    37   1      9.1250000000000071      52.925000000000011      54.750000000000007
    38   1      7.3000000000000114      51.100000000000009      58.399999999999999
    39   1      7.3000000000000114      52.925000000000011      60.225000000000001
    40   1      9.1250000000000071      51.100000000000009      60.225000000000001
    41   1      9.1250000000000071      52.925000000000011      58.399999999999999
    42   1      7.3000000000000114      52.925000000000011      63.875000000000007
    43   1      9.1250000000000071      51.100000000000009      63.875000000000007
    44   1      9.1250000000000071      52.925000000000011      62.050000000000004
    45   1      9.1250000000000071      52.925000000000011      65.700000000000003
    46   1      7.3000000000000114       56.57500000000001      52.925000000000011
    47   1      9.1250000000000071      54.750000000000007      52.925000000000011
    48   1      9.1250000000000071       56.57500000000001      51.100000000000009
    49   1      7.3000000000000114      54.750000000000007      54.750000000000007
    50   1      7.3000000000000114       56.57500000000001       56.57500000000001
    51   1      9.1250000000000071      54.750000000000007       56.57500000000001
    52   1      9.1250000000000071       56.57500000000001      54.750000000000007
    53   1      7.3000000000000114      54.750000000000007      58.399999999999999
    54   1      7.3000000000000114       56.57500000000001      60.225000000000001
    55   1      9.1250000000000071      54.750000000000007      60.225000000000001
    56   1      9.1250000000000071       56.57500000000001      58.399999999999999
    57   1      7.3000000000000114      54.750000000000007      62.050000000000004
    58   1      7.3000000000000114       56.57500000000001      63.875000000000007
    59   1      9.1250000000000071      54.750000000000007      63.875000000000007
    60   1      9.1250000000000071       56.57500000000001      62.050000000000004
    61   1      9.1250000000000071       56.57500000000001      65.700000000000003
    62   1      9.1250000000000071      58.399999999999999      49.275000000000013
    63   1      7.3000000000000114      58.399999999999999      51.100000000000009
    64   1      7.3000000000000114      60.225000000000001      52.925000000000011
    65   1      9.1250000000000071      58.399999999999999      52.925000000000011
    66   1      9.1250000000000071      60.225000000000001      51.100000000000009
    67   1      7.3000000000000114      58.399999999999999      54.750000000000007
    68   1      7.3000000000000114      60.225000000000001       56.57500000000001
    69   1      9.1250000000000071      58.399999999999999       56.57500000000001
    70   1      9.1250000000000071      60.225000000000001      54.750000000000007
    71   1      7.3000000000000114      58.399999999999999      58.399999999999999
    72   1      7.3000000000000114      60.225000000000001      60.225000000000001
    73   1      9.1250000000000071      58.399999999999999      60.225000000000001
    74   1      9.1250000000000071      60.225000000000001      58.399999999999999
    75   1      7.3000000000000114      58.399999999999999      62.050000000000004
    76   1      7.3000000000000114      60.225000000000001      63.875000000000007
    77   1      9.1250000000000071      58.399999999999999      63.875000000000007
    78   1      9.1250000000000071      60.225000000000001      62.050000000000004
    79   1      7.3000000000000114      58.399999999999999      65.700000000000003
    80   1      9.1250000000000071      58.399999999999999      67.525000000000006
    81   1      9.1250000000000071      60.225000000000001      65.700000000000003
    82   1      7.3000000000000114      63.875000000000007      52.925000000000011
    83   1      9.1250000000000071      62.050000000000004      52.925000000000011
    84   1      9.1250000000000071      63.875000000000007      51.100000000000009
    85   1      7.3000000000000114      62.050000000000004      54.750000000000007
    86   1      7.3000000000000114      63.875000000000007       56.57500000000001
    87   1      9.1250000000000071      62.050000000000004       56.57500000000001
    88   1      9.1250000000000071      63.875000000000007      54.750000000000007
    89   1      7.3000000000000114      62.050000000000004      58.399999999999999
    90   1      7.3000000000000114      63.875000000000007      60.225000000000001
    91   1      9.1250000000000071      62.050000000000004      60.225000000000001
    92   1      9.1250000000000071      63.875000000000007      58.399999999999999
    93   1      7.3000000000000114      62.050000000000004      62.050000000000004
    94   1      7.3000000000000114      63.875000000000007      63.875000000000007
    95   1      9.1250000000000071      62.050000000000004      63.875000000000007
    96   1      9.1250000000000071      63.875000000000007      62.050000000000004
    97   1      9.1250000000000071      63.875000000000007      65.700000000000003
    98   1      9.1250000000000071      65.700000000000003      52.925000000000011
    99   1      9.1250000000000071      65.700000000000003       56.57500000000001
   100   1      7.3000000000000114      65.700000000000003      58.399999999999999
   101   1      9.1250000000000071      65.700000000000003      60.225000000000001
   102   1      9.1250000000000071      67.525000000000006      58.399999999999999
   103   1      9.1250000000000071      65.700000000000003      63.875000000000007
   104   1      12.775000000000006      45.625000000000007      58.399999999999999
   105   1      10.950000000000008      49.275000000000013      49.275000000000013
   106   1      12.775000000000006       47.45000000000001      49.275000000000013
   107   1      12.775000000000006      49.275000000000013       47.45000000000001
   108   1      10.950000000000008      49.275000000000013      52.925000000000011
   109   1      12.775000000000006       47.45000000000001      52.925000000000011
   110   1      12.775000000000006      49.275000000000013      51.100000000000009
   111   1      10.950000000000008      49.275000000000013       56.57500000000001
   112   1      12.775000000000006       47.45000000000001       56.57500000000001
   113   1      12.775000000000006      49.275000000000013      54.750000000000007
   114   1      10.950000000000008       47.45000000000001      58.399999999999999
   115   1      10.950000000000008      49.275000000000013      60.225000000000001
   116   1      12.775000000000006       47.45000000000001      60.225000000000001
   117   1      12.775000000000006      49.275000000000013      58.399999999999999
   118   1      10.950000000000008      49.275000000000013      63.875000000000007
   119   1      12.775000000000006       47.45000000000001      63.875000000000007
   120   1      12.775000000000006      49.275000000000013      62.050000000000004
   121   1      10.950000000000008      49.275000000000013      67.525000000000006
   122   1      12.775000000000006       47.45000000000001      67.525000000000006
   123   1      12.775000000000006      49.275000000000013      65.700000000000003
   124   1      12.775000000000006      49.275000000000013      69.350000000000009
   125   1      10.950000000000008      52.925000000000011      49.275000000000013
   126   1      12.775000000000006      51.100000000000009      49.275000000000013
   127   1      12.775000000000006      52.925000000000011       47.45000000000001
   128   1      10.950000000000008      51.100000000000009      51.100000000000009
   129   1      10.950000000000008      52.925000000000011      52.925000000000011
   130   1      12.775000000000006      51.100000000000009      52.925000000000011
   131   1      12.775000000000006      52.925000000000011      51.100000000000009
   132   1      10.950000000000008      51.100000000000009      54.750000000000007
   133   1      10.950000000000008      52.925000000000011       56.57500000000001
   134   1      12.775000000000006      51.100000000000009       56.57500000000001
   135   1      12.775000000000006      52.925000000000011      54.750000000000007
   136   1      10.950000000000008      51.100000000000009      58.399999999999999
   137   1      10.950000000000008      52.925000000000011      60.225000000000001
   138   1      12.775000000000006      51.100000000000009      60.225000000000001
   139   1      12.775000000000006      52.925000000000011      58.399999999999999
   140   1      10.950000000000008      51.100000000000009      62.050000000000004
   141   1      10.950000000000008      52.925000000000011      63.875000000000007
   142   1      12.775000000000006      51.100000000000009      63.875000000000007
   143   1      12.775000000000006      52.925000000000011      62.050000000000004
   144   1      10.950000000000008      51.100000000000009      65.700000000000003
   145   1      10.950000000000008      52.925000000000011      67.525000000000006
   146   1      12.775000000000006      51.100000000000009      67.525000000000006
   147   1      12.775000000000006      52.925000000000011      65.700000000000003
   148   1      12.775000000000006      52.925000000000011      69.350000000000009
   149   1      10.950000000000008       56.57500000000001      49.275000000000013
   150   1      12.775000000000006      54.750000000000007      49.275000000000013
   151   1      12.775000000000006       56.57500000000001       47.45000000000001
   152   1      10.950000000000008      54.750000000000007      51.100000000000009
   153   1      10.950000000000008       56.57500000000001      52.925000000000011
   154   1      12.775000000000006      54.750000000000007      52.925000000000011
   155   1      12.775000000000006       56.57500000000001      51.100000000000009
   156   1      10.950000000000008      54.750000000000007      54.750000000000007
   157   1      10.950000000000008       56.57500000000001       56.57500000000001
   158   1      12.775000000000006      54.750000000000007       56.57500000000001
   159   1      12.775000000000006       56.57500000000001      54.750000000000007
   160   1      10.950000000000008      54.750000000000007      58.399999999999999
   161   1      10.950000000000008       56.57500000000001      60.225000000000001
   162   1      12.775000000000006      54.750000000000007      60.225000000000001
   163   1      12.775000000000006       56.57500000000001      58.399999999999999
   164   1      10.950000000000008      54.750000000000007      62.050000000000004
   165   1      10.950000000000008       56.57500000000001      63.875000000000007
   166   1      12.775000000000006      54.750000000000007      63.875000000000007
   167   1      12.775000000000006       56.57500000000001      62.050000000000004
   168   1      10.950000000000008      54.750000000000007      65.700000000000003
   169   1      10.950000000000008       56.57500000000001      67.525000000000006
   170   1      12.775000000000006      54.750000000000007      67.525000000000006
   171   1      12.775000000000006       56.57500000000001      65.700000000000003
   172   1      12.775000000000006       56.57500000000001      69.350000000000009
   173   1      12.775000000000006      58.399999999999999      45.625000000000007
   174   1      10.950000000000008      58.399999999999999       47.45000000000001
   175   1      10.950000000000008      60.225000000000001      49.275000000000013
   176   1      12.775000000000006      58.399999999999999      49.275000000000013
   177   1      12.775000000000006      60.225000000000001       47.45000000000001
   178   1      10.950000000000008      58.399999999999999      51.100000000000009
   179   1      10.950000000000008      60.225000000000001      52.925000000000011
   180   1      12.775000000000006      58.399999999999999      52.925000000000011
   181   1      12.775000000000006      60.225000000000001      51.100000000000009
   182   1      10.950000000000008      58.399999999999999      54.750000000000007
   183   1      10.950000000000008      60.225000000000001       56.57500000000001
   184   1      12.775000000000006      58.399999999999999       56.57500000000001
   185   1      12.775000000000006      60.225000000000001      54.750000000000007
   186   1      10.950000000000008      58.399999999999999      58.399999999999999
   187   1      10.950000000000008      60.225000000000001      60.225000000000001
   188   1      12.775000000000006      58.399999999999999      60.225000000000001
   189   1      12.775000000000006      60.225000000000001      58.399999999999999
   190   1      10.950000000000008      58.399999999999999      62.050000000000004
   191   1      10.950000000000008      60.225000000000001      63.875000000000007
   192   1      12.775000000000006      58.399999999999999      63.875000000000007
   193   1      12.775000000000006      60.225000000000001      62.050000000000004
   194   1      10.950000000000008      58.399999999999999      65.700000000000003
   195   1      10.950000000000008      60.225000000000001      67.525000000000006
   196   1      12.775000000000006      58.399999999999999      67.525000000000006
   197   1      12.775000000000006      60.225000000000001      65.700000000000003
   198   1      10.950000000000008      58.399999999999999      69.350000000000009
   199   1      12.775000000000006      58.399999999999999      71.175000000000011
   200   1      12.775000000000006      60.225000000000001      69.350000000000009
   201   1      10.950000000000008      63.875000000000007      49.275000000000013
   202   1      12.775000000000006      62.050000000000004      49.275000000000013
   203   1      12.775000000000006      63.875000000000007       47.45000000000001
   204   1      10.950000000000008      62.050000000000004      51.100000000000009
   205   1      10.950000000000008      63.875000000000007      52.925000000000011
   206   1      12.775000000000006      62.050000000000004      52.925000000000011
   207   1      12.775000000000006      63.875000000000007      51.100000000000009
   208   1      10.950000000000008      62.050000000000004      54.750000000000007
   209   1      10.950000000000008      63.875000000000007       56.57500000000001
   210   1      12.775000000000006      62.050000000000004       56.57500000000001
   211   1      12.775000000000006      63.875000000000007      54.750000000000007
   212   1      10.950000000000008      62.050000000000004      58.399999999999999
   213   1      10.950000000000008      63.875000000000007      60.225000000000001
   214   1      12.775000000000006      62.050000000000004      60.225000000000001
   215   1      12.775000000000006      63.875000000000007      58.399999999999999
   216   1      10.950000000000008      62.050000000000004      62.050000000000004
   217   1      10.950000000000008      63.875000000000007      63.875000000000007
   218   1      12.775000000000006      62.050000000000004      63.875000000000007
   219   1      12.775000000000006      63.875000000000007      62.050000000000004
   220   1      10.950000000000008      62.050000000000004      65.700000000000003
   221   1      10.950000000000008      63.875000000000007      67.525000000000006
   222   1      12.775000000000006      62.050000000000004      67.525000000000006
   223   1      12.775000000000006      63.875000000000007      65.700000000000003
   224   1      12.775000000000006      63.875000000000007      69.350000000000009
   225   1      10.950000000000008      67.525000000000006      49.275000000000013
   226   1      12.775000000000006      65.700000000000003      49.275000000000013
   227   1      12.775000000000006      67.525000000000006       47.45000000000001
   228   1      10.950000000000008      65.700000000000003      51.100000000000009
   229   1      10.950000000000008      67.525000000000006      52.925000000000011
   230   1      12.775000000000006      65.700000000000003      52.925000000000011
   231   1      12.775000000000006      67.525000000000006      51.100000000000009
   232   1      10.950000000000008      65.700000000000003      54.750000000000007
   233   1      10.950000000000008      67.525000000000006       56.57500000000001
   234   1      12.775000000000006      65.700000000000003       56.57500000000001
   235   1      12.775000000000006      67.525000000000006      54.750000000000007
   236   1      10.950000000000008      65.700000000000003      58.399999999999999
   237   1      10.950000000000008      67.525000000000006      60.225000000000001
   238   1      12.775000000000006      65.700000000000003      60.225000000000001
   239   1      12.775000000000006      67.525000000000006      58.399999999999999
   240   1      10.950000000000008      65.700000000000003      62.050000000000004
   241   1      10.950000000000008      67.525000000000006      63.875000000000007
   242   1      12.775000000000006      65.700000000000003      63.875000000000007
   243   1      12.775000000000006      67.525000000000006      62.050000000000004
   244   1      10.950000000000008      65.700000000000003      65.700000000000003
   245   1      10.950000000000008      67.525000000000006      67.525000000000006
   246   1      12.775000000000006      65.700000000000003      67.525000000000006
   247   1      12.775000000000006      67.525000000000006      65.700000000000003
   248   1      12.775000000000006      67.525000000000006      69.350000000000009
   249   1      12.775000000000006      69.350000000000009      49.275000000000013
   250   1      12.775000000000006      69.350000000000009      52.925000000000011
   251   1      12.775000000000006      69.350000000000009       56.57500000000001
   252   1      10.950000000000008      69.350000000000009      58.399999999999999
   253   1      12.775000000000006      69.350000000000009      60.225000000000001
   254   1      12.775000000000006      71.175000000000011      58.399999999999999
   255   1      12.775000000000006      69.350000000000009      63.875000000000007
   256   1      12.775000000000006      69.350000000000009      67.525000000000006
   257   1      16.425000000000011      41.975000000000009      58.399999999999999
   258   1       14.60000000000001      45.625000000000007      49.275000000000013
   259   1      16.425000000000011      43.800000000000004      49.275000000000013
   260   1      16.425000000000011      45.625000000000007       47.45000000000001
   261   1       14.60000000000001      45.625000000000007      52.925000000000011
   262   1      16.425000000000011      43.800000000000004      52.925000000000011
   263   1      16.425000000000011      45.625000000000007      51.100000000000009
   264   1       14.60000000000001      45.625000000000007       56.57500000000001
   265   1      16.425000000000011      43.800000000000004       56.57500000000001
   266   1      16.425000000000011      45.625000000000007      54.750000000000007
   267   1       14.60000000000001      43.800000000000004      58.399999999999999
   268   1       14.60000000000001      45.625000000000007      60.225000000000001
   269   1      16.425000000000011      43.800000000000004      60.225000000000001
   270   1      16.425000000000011      45.625000000000007      58.399999999999999
   271   1       14.60000000000001      45.625000000000007      63.875000000000007
   272   1      16.425000000000011      43.800000000000004      63.875000000000007
   273   1      16.425000000000011      45.625000000000007      62.050000000000004
   274   1       14.60000000000001      45.625000000000007      67.525000000000006
   275   1      16.425000000000011      43.800000000000004      67.525000000000006
   276   1      16.425000000000011      45.625000000000007      65.700000000000003
   277   1      16.425000000000011      45.625000000000007      69.350000000000009
   278   1       14.60000000000001      49.275000000000013      45.625000000000007
   279   1      16.425000000000011       47.45000000000001      45.625000000000007
   280   1      16.425000000000011      49.275000000000013      43.800000000000004
   281   1       14.60000000000001       47.45000000000001       47.45000000000001
   282   1       14.60000000000001      49.275000000000013      49.275000000000013
   283   1      16.425000000000011       47.45000000000001      49.275000000000013
   284   1      16.425000000000011      49.275000000000013       47.45000000000001
   285   1       14.60000000000001       47.45000000000001      51.100000000000009
   286   1       14.60000000000001      49.275000000000013      52.925000000000011
   287   1      16.425000000000011       47.45000000000001      52.925000000000011
   288   1      16.425000000000011      49.275000000000013      51.100000000000009
   289   1       14.60000000000001       47.45000000000001      54.750000000000007
   290   1       14.60000000000001      49.275000000000013       56.57500000000001
   291   1      16.425000000000011       47.45000000000001       56.57500000000001
   292   1      16.425000000000011      49.275000000000013      54.750000000000007
   293   1       14.60000000000001       47.45000000000001      58.399999999999999
   294   1       14.60000000000001      49.275000000000013      60.225000000000001
   295   1      16.425000000000011       47.45000000000001      60.225000000000001
   296   1      16.425000000000011      49.275000000000013      58.399999999999999
   297   1       14.60000000000001       47.45000000000001      62.050000000000004
   298   1       14.60000000000001      49.275000000000013      63.875000000000007
   299   1      16.425000000000011       47.45000000000001      63.875000000000007
   300   1      16.425000000000011      49.275000000000013      62.050000000000004
   301   1       14.60000000000001       47.45000000000001      65.700000000000003
   302   1       14.60000000000001      49.275000000000013      67.525000000000006
   303   1      16.425000000000011       47.45000000000001      67.525000000000006
   304   1      16.425000000000011      49.275000000000013      65.700000000000003
   305   1       14.60000000000001       47.45000000000001      69.350000000000009
   306   1       14.60000000000001      49.275000000000013      71.175000000000011
   307   1      16.425000000000011       47.45000000000001      71.175000000000011
   308   1      16.425000000000011      49.275000000000013      69.350000000000009
   309   1      16.425000000000011      49.275000000000013                      73
   310   1       14.60000000000001      52.925000000000011      45.625000000000007
   311   1      16.425000000000011      51.100000000000009      45.625000000000007
   312   1      16.425000000000011      52.925000000000011      43.800000000000004
   313   1       14.60000000000001      51.100000000000009       47.45000000000001
   314   1       14.60000000000001      52.925000000000011      49.275000000000013
   315   1      16.425000000000011      51.100000000000009      49.275000000000013
   316   1      16.425000000000011      52.925000000000011       47.45000000000001
   317   1       14.60000000000001      51.100000000000009      51.100000000000009
   318   1       14.60000000000001      52.925000000000011      52.925000000000011
   319   1      16.425000000000011      51.100000000000009      52.925000000000011
   320   1      16.425000000000011      52.925000000000011      51.100000000000009
   321   1       14.60000000000001      51.100000000000009      54.750000000000007
   322   1       14.60000000000001      52.925000000000011       56.57500000000001
   323   1      16.425000000000011      51.100000000000009       56.57500000000001
   324   1      16.425000000000011      52.925000000000011      54.750000000000007
   325   1       14.60000000000001      51.100000000000009      58.399999999999999
   326   1       14.60000000000001      52.925000000000011      60.225000000000001
   327   1      16.425000000000011      51.100000000000009      60.225000000000001
   328   1      16.425000000000011      52.925000000000011      58.399999999999999
   329   1       14.60000000000001      51.100000000000009      62.050000000000004
   330   1       14.60000000000001      52.925000000000011      63.875000000000007
   331   1      16.425000000000011      51.100000000000009      63.875000000000007
   332   1      16.425000000000011      52.925000000000011      62.050000000000004
   333   1       14.60000000000001      51.100000000000009      65.700000000000003
   334   1       14.60000000000001      52.925000000000011      67.525000000000006
   335   1      16.425000000000011      51.100000000000009      67.525000000000006
   336   1      16.425000000000011      52.925000000000011      65.700000000000003
   337   1       14.60000000000001      51.100000000000009      69.350000000000009
   338   1       14.60000000000001      52.925000000000011      71.175000000000011
   339   1      16.425000000000011      51.100000000000009      71.175000000000011
   340   1      16.425000000000011      52.925000000000011      69.350000000000009
   341   1      16.425000000000011      52.925000000000011                      73
   342   1       14.60000000000001       56.57500000000001      45.625000000000007
   343   1      16.425000000000011      54.750000000000007      45.625000000000007
   344   1      16.425000000000011       56.57500000000001      43.800000000000004
   345   1       14.60000000000001      54.750000000000007       47.45000000000001
   346   1       14.60000000000001       56.57500000000001      49.275000000000013
   347   1      16.425000000000011      54.750000000000007      49.275000000000013
   348   1      16.425000000000011       56.57500000000001       47.45000000000001
   349   1       14.60000000000001      54.750000000000007      51.100000000000009
   350   1       14.60000000000001       56.57500000000001      52.925000000000011
   351   1      16.425000000000011      54.750000000000007      52.925000000000011
   352   1      16.425000000000011       56.57500000000001      51.100000000000009
   353   1       14.60000000000001      54.750000000000007      54.750000000000007
   354   1       14.60000000000001       56.57500000000001       56.57500000000001
   355   1      16.425000000000011      54.750000000000007       56.57500000000001
   356   1      16.425000000000011       56.57500000000001      54.750000000000007
   357   1       14.60000000000001      54.750000000000007      58.399999999999999
   358   1       14.60000000000001       56.57500000000001      60.225000000000001