model_files/Pd/Pd_30000/Pd_421/data.Pd_421_fcc_30423 (written by ASE) 

30423 	 atoms 
1  atom types
0.0                     103  xlo xhi
0.0                     103  ylo yhi
0.0                     103  zlo zhi


Atoms 

     1   1      1.9450000000000003      44.734999999999999      46.679999999999993
     2   1      1.9450000000000003      44.734999999999999                   50.57
     3   1      1.9450000000000003      44.734999999999999      54.459999999999994
     4   1      1.9450000000000003      46.679999999999993      44.734999999999999
     5   1                       0      48.624999999999993      48.624999999999993
     6   1      1.9450000000000003      46.679999999999993      48.624999999999993
     7   1      1.9450000000000003      48.624999999999993      46.679999999999993
     8   1                       0      46.679999999999993                   50.57
     9   1                       0      48.624999999999993      52.515000000000001
    10   1      1.9450000000000003      46.679999999999993      52.515000000000001
    11   1      1.9450000000000003      48.624999999999993                   50.57
    12   1      1.9450000000000003      46.679999999999993      56.404999999999994
    13   1      1.9450000000000003      48.624999999999993      54.459999999999994
    14   1      1.9450000000000003                   50.57      44.734999999999999
    15   1                       0                   50.57      46.679999999999993
    16   1                       0      52.515000000000001      48.624999999999993
    17   1      1.9450000000000003                   50.57      48.624999999999993
    18   1      1.9450000000000003      52.515000000000001      46.679999999999993
    19   1                       0                   50.57                   50.57
    20   1                       0      52.515000000000001      52.515000000000001
    21   1      1.9450000000000003                   50.57      52.515000000000001
    22   1      1.9450000000000003      52.515000000000001                   50.57
    23   1                       0                   50.57      54.459999999999994
    24   1      1.9450000000000003                   50.57      56.404999999999994
    25   1      1.9450000000000003      52.515000000000001      54.459999999999994
    26   1      1.9450000000000003      54.459999999999994      44.734999999999999
    27   1      1.9450000000000003      54.459999999999994      48.624999999999993
    28   1      1.9450000000000003      56.404999999999994      46.679999999999993
    29   1                       0      54.459999999999994                   50.57
    30   1      1.9450000000000003      54.459999999999994      52.515000000000001
    31   1      1.9450000000000003      56.404999999999994                   50.57
    32   1      1.9450000000000003      54.459999999999994      56.404999999999994
    33   1      1.9450000000000003      56.404999999999994      54.459999999999994
    34   1      5.8350000000000009      36.954999999999991      46.679999999999993
    35   1      5.8350000000000009      36.954999999999991                   50.57
    36   1      5.8350000000000009      36.954999999999991      54.459999999999994
    37   1      5.8350000000000009      38.899999999999999      44.734999999999999
    38   1      5.8350000000000009      40.844999999999999      42.789999999999992
    39   1      3.8900000000000006      40.844999999999999      48.624999999999993
    40   1      5.8350000000000009      38.899999999999999      48.624999999999993
    41   1      5.8350000000000009      40.844999999999999      46.679999999999993
    42   1      3.8900000000000006      38.899999999999999                   50.57
    43   1      3.8900000000000006      40.844999999999999      52.515000000000001
    44   1      5.8350000000000009      38.899999999999999      52.515000000000001
    45   1      5.8350000000000009      40.844999999999999                   50.57
    46   1      5.8350000000000009      38.899999999999999      56.404999999999994
    47   1      5.8350000000000009      40.844999999999999      54.459999999999994
    48   1      5.8350000000000009      40.844999999999999      58.350000000000001
    49   1      5.8350000000000009      42.789999999999992      40.844999999999999
    50   1      5.8350000000000009      44.734999999999999      38.899999999999999
    51   1      3.8900000000000006      42.789999999999992      42.789999999999992
    52   1      3.8900000000000006      44.734999999999999      44.734999999999999
    53   1      5.8350000000000009      42.789999999999992      44.734999999999999
    54   1      5.8350000000000009      44.734999999999999      42.789999999999992
    55   1      3.8900000000000006      42.789999999999992      46.679999999999993
    56   1      3.8900000000000006      44.734999999999999      48.624999999999993
    57   1      5.8350000000000009      42.789999999999992      48.624999999999993
    58   1      5.8350000000000009      44.734999999999999      46.679999999999993
    59   1      3.8900000000000006      42.789999999999992                   50.57
    60   1      3.8900000000000006      44.734999999999999      52.515000000000001
    61   1      5.8350000000000009      42.789999999999992      52.515000000000001
    62   1      5.8350000000000009      44.734999999999999                   50.57
    63   1      3.8900000000000006      42.789999999999992      54.459999999999994
    64   1      3.8900000000000006      44.734999999999999      56.404999999999994
    65   1      5.8350000000000009      42.789999999999992      56.404999999999994
    66   1      5.8350000000000009      44.734999999999999      54.459999999999994
    67   1      3.8900000000000006      42.789999999999992      58.350000000000001
    68   1      5.8350000000000009      42.789999999999992      60.295000000000002
    69   1      5.8350000000000009      44.734999999999999      58.350000000000001
    70   1      5.8350000000000009      44.734999999999999      62.239999999999995
    71   1      5.8350000000000009      46.679999999999993      36.954999999999991
    72   1      3.8900000000000006      48.624999999999993      40.844999999999999
    73   1      5.8350000000000009      46.679999999999993      40.844999999999999
    74   1      5.8350000000000009      48.624999999999993      38.899999999999999
    75   1      3.8900000000000006      46.679999999999993      42.789999999999992
    76   1      3.8900000000000006      48.624999999999993      44.734999999999999
    77   1      5.8350000000000009      46.679999999999993      44.734999999999999
    78   1      5.8350000000000009      48.624999999999993      42.789999999999992
    79   1      3.8900000000000006      46.679999999999993      46.679999999999993
    80   1      3.8900000000000006      48.624999999999993      48.624999999999993
    81   1      5.8350000000000009      46.679999999999993      48.624999999999993
    82   1      5.8350000000000009      48.624999999999993      46.679999999999993
    83   1      3.8900000000000006      46.679999999999993                   50.57
    84   1      3.8900000000000006      48.624999999999993      52.515000000000001
    85   1      5.8350000000000009      46.679999999999993      52.515000000000001
    86   1      5.8350000000000009      48.624999999999993                   50.57
    87   1      3.8900000000000006      46.679999999999993      54.459999999999994
    88   1      3.8900000000000006      48.624999999999993      56.404999999999994
    89   1      5.8350000000000009      46.679999999999993      56.404999999999994
    90   1      5.8350000000000009      48.624999999999993      54.459999999999994
    91   1      3.8900000000000006      46.679999999999993      58.350000000000001
    92   1      3.8900000000000006      48.624999999999993      60.295000000000002
    93   1      5.8350000000000009      46.679999999999993      60.295000000000002
    94   1      5.8350000000000009      48.624999999999993      58.350000000000001
    95   1      5.8350000000000009      46.679999999999993      64.184999999999974
    96   1      5.8350000000000009      48.624999999999993      62.239999999999995
    97   1      5.8350000000000009                   50.57      36.954999999999991
    98   1      3.8900000000000006                   50.57      38.899999999999999
    99   1      3.8900000000000006      52.515000000000001      40.844999999999999
   100   1      5.8350000000000009                   50.57      40.844999999999999
   101   1      5.8350000000000009      52.515000000000001      38.899999999999999
   102   1      3.8900000000000006                   50.57      42.789999999999992
   103   1      3.8900000000000006      52.515000000000001      44.734999999999999
   104   1      5.8350000000000009                   50.57      44.734999999999999
   105   1      5.8350000000000009      52.515000000000001      42.789999999999992
   106   1      3.8900000000000006                   50.57      46.679999999999993
   107   1      3.8900000000000006      52.515000000000001      48.624999999999993
   108   1      5.8350000000000009                   50.57      48.624999999999993
   109   1      5.8350000000000009      52.515000000000001      46.679999999999993
   110   1      3.8900000000000006                   50.57                   50.57
   111   1      3.8900000000000006      52.515000000000001      52.515000000000001
   112   1      5.8350000000000009                   50.57      52.515000000000001
   113   1      5.8350000000000009      52.515000000000001                   50.57
   114   1      3.8900000000000006                   50.57      54.459999999999994
   115   1      3.8900000000000006      52.515000000000001      56.404999999999994
   116   1      5.8350000000000009                   50.57      56.404999999999994
   117   1      5.8350000000000009      52.515000000000001      54.459999999999994
   118   1      3.8900000000000006                   50.57      58.350000000000001
   119   1      3.8900000000000006      52.515000000000001      60.295000000000002
   120   1      5.8350000000000009                   50.57      60.295000000000002
   121   1      5.8350000000000009      52.515000000000001      58.350000000000001
   122   1      3.8900000000000006                   50.57      62.239999999999995
   123   1      5.8350000000000009                   50.57      64.184999999999974
   124   1      5.8350000000000009      52.515000000000001      62.239999999999995
   125   1      5.8350000000000009      54.459999999999994      36.954999999999991
   126   1      5.8350000000000009      54.459999999999994      40.844999999999999
   127   1      5.8350000000000009      56.404999999999994      38.899999999999999
   128   1      3.8900000000000006      54.459999999999994      42.789999999999992
   129   1      3.8900000000000006      56.404999999999994      44.734999999999999
   130   1      5.8350000000000009      54.459999999999994      44.734999999999999
   131   1      5.8350000000000009      56.404999999999994      42.789999999999992
   132   1      3.8900000000000006      54.459999999999994      46.679999999999993
   133   1      3.8900000000000006      56.404999999999994      48.624999999999993
   134   1      5.8350000000000009      54.459999999999994      48.624999999999993
   135   1      5.8350000000000009      56.404999999999994      46.679999999999993
   136   1      3.8900000000000006      54.459999999999994                   50.57
   137   1      3.8900000000000006      56.404999999999994      52.515000000000001
   138   1      5.8350000000000009      54.459999999999994      52.515000000000001
   139   1      5.8350000000000009      56.404999999999994                   50.57
   140   1      3.8900000000000006      54.459999999999994      54.459999999999994
   141   1      3.8900000000000006      56.404999999999994      56.404999999999994
   142   1      5.8350000000000009      54.459999999999994      56.404999999999994
   143   1      5.8350000000000009      56.404999999999994      54.459999999999994
   144   1      3.8900000000000006      54.459999999999994      58.350000000000001
   145   1      5.8350000000000009      54.459999999999994      60.295000000000002
   146   1      5.8350000000000009      56.404999999999994      58.350000000000001
   147   1      5.8350000000000009      54.459999999999994      64.184999999999974
   148   1      5.8350000000000009      56.404999999999994      62.239999999999995
   149   1      5.8350000000000009      58.350000000000001      40.844999999999999
   150   1      3.8900000000000006      58.350000000000001      42.789999999999992
   151   1      5.8350000000000009      58.350000000000001      44.734999999999999
   152   1      5.8350000000000009      60.295000000000002      42.789999999999992
   153   1      3.8900000000000006      58.350000000000001      46.679999999999993
   154   1      3.8900000000000006      60.295000000000002      48.624999999999993
   155   1      5.8350000000000009      58.350000000000001      48.624999999999993
   156   1      5.8350000000000009      60.295000000000002      46.679999999999993
   157   1      3.8900000000000006      58.350000000000001                   50.57
   158   1      3.8900000000000006      60.295000000000002      52.515000000000001
   159   1      5.8350000000000009      58.350000000000001      52.515000000000001
   160   1      5.8350000000000009      60.295000000000002                   50.57
   161   1      3.8900000000000006      58.350000000000001      54.459999999999994
   162   1      5.8350000000000009      58.350000000000001      56.404999999999994
   163   1      5.8350000000000009      60.295000000000002      54.459999999999994
   164   1      3.8900000000000006      58.350000000000001      58.350000000000001
   165   1      5.8350000000000009      58.350000000000001      60.295000000000002
   166   1      5.8350000000000009      60.295000000000002      58.350000000000001
   167   1      5.8350000000000009      62.239999999999995      44.734999999999999
   168   1      5.8350000000000009      62.239999999999995      48.624999999999993
   169   1      5.8350000000000009      64.184999999999974      46.679999999999993
   170   1      3.8900000000000006      62.239999999999995                   50.57
   171   1      5.8350000000000009      62.239999999999995      52.515000000000001
   172   1      5.8350000000000009      64.184999999999974                   50.57
   173   1      5.8350000000000009      62.239999999999995      56.404999999999994
   174   1      5.8350000000000009      64.184999999999974      54.459999999999994
   175   1      9.7249999999999996      29.174999999999994      46.679999999999993
   176   1      9.7249999999999996      29.174999999999994                   50.57
   177   1      9.7249999999999996      29.174999999999994      54.459999999999994
   178   1      9.7249999999999996      33.064999999999991      38.899999999999999
   179   1      9.7249999999999996      31.119999999999997      44.734999999999999
   180   1      9.7249999999999996      33.064999999999991      42.789999999999992
   181   1      7.7800000000000011      33.064999999999991      48.624999999999993
   182   1      9.7249999999999996      31.119999999999997      48.624999999999993
   183   1      9.7249999999999996      33.064999999999991      46.679999999999993
   184   1      7.7800000000000011      31.119999999999997                   50.57
   185   1      7.7800000000000011      33.064999999999991      52.515000000000001
   186   1      9.7249999999999996      31.119999999999997      52.515000000000001
   187   1      9.7249999999999996      33.064999999999991                   50.57
   188   1      9.7249999999999996      31.119999999999997      56.404999999999994
   189   1      9.7249999999999996      33.064999999999991      54.459999999999994
   190   1      9.7249999999999996      33.064999999999991      58.350000000000001
   191   1      9.7249999999999996      33.064999999999991      62.239999999999995
   192   1      9.7249999999999996      35.009999999999998      36.954999999999991
   193   1      9.7249999999999996      36.954999999999991      35.009999999999998
   194   1      7.7800000000000011      36.954999999999991      40.844999999999999
   195   1      9.7249999999999996      35.009999999999998      40.844999999999999
   196   1      9.7249999999999996      36.954999999999991      38.899999999999999
   197   1      7.7800000000000011      35.009999999999998      42.789999999999992
   198   1      7.7800000000000011      36.954999999999991      44.734999999999999
   199   1      9.7249999999999996      35.009999999999998      44.734999999999999
   200   1      9.7249999999999996      36.954999999999991      42.789999999999992
   201   1      7.7800000000000011      35.009999999999998      46.679999999999993
   202   1      7.7800000000000011      36.954999999999991      48.624999999999993
   203   1      9.7249999999999996      35.009999999999998      48.624999999999993
   204   1      9.7249999999999996      36.954999999999991      46.679999999999993
   205   1      7.7800000000000011      35.009999999999998                   50.57
   206   1      7.7800000000000011      36.954999999999991      52.515000000000001
   207   1      9.7249999999999996      35.009999999999998      52.515000000000001
   208   1      9.7249999999999996      36.954999999999991                   50.57
   209   1      7.7800000000000011      35.009999999999998      54.459999999999994
   210   1      7.7800000000000011      36.954999999999991      56.404999999999994
   211   1      9.7249999999999996      35.009999999999998      56.404999999999994
   212   1      9.7249999999999996      36.954999999999991      54.459999999999994
   213   1      7.7800000000000011      35.009999999999998      58.350000000000001
   214   1      7.7800000000000011      36.954999999999991      60.295000000000002
   215   1      9.7249999999999996      35.009999999999998      60.295000000000002
   216   1      9.7249999999999996      36.954999999999991      58.350000000000001
   217   1      9.7249999999999996      35.009999999999998      64.184999999999974
   218   1      9.7249999999999996      36.954999999999991      62.239999999999995
   219   1      9.7249999999999996      36.954999999999991      66.129999999999981
   220   1      9.7249999999999996      38.899999999999999      33.064999999999991
   221   1      7.7800000000000011      40.844999999999999      36.954999999999991
   222   1      9.7249999999999996      38.899999999999999      36.954999999999991
   223   1      9.7249999999999996      40.844999999999999      35.009999999999998
   224   1      7.7800000000000011      38.899999999999999      38.899999999999999
   225   1      7.7800000000000011      40.844999999999999      40.844999999999999
   226   1      9.7249999999999996      38.899999999999999      40.844999999999999
   227   1      9.7249999999999996      40.844999999999999      38.899999999999999
   228   1      7.7800000000000011      38.899999999999999      42.789999999999992
   229   1      7.7800000000000011      40.844999999999999      44.734999999999999
   230   1      9.7249999999999996      38.899999999999999      44.734999999999999
   231   1      9.7249999999999996      40.844999999999999      42.789999999999992
   232   1      7.7800000000000011      38.899999999999999      46.679999999999993
   233   1      7.7800000000000011      40.844999999999999      48.624999999999993
   234   1      9.7249999999999996      38.899999999999999      48.624999999999993
   235   1      9.7249999999999996      40.844999999999999      46.679999999999993
   236   1      7.7800000000000011      38.899999999999999                   50.57
   237   1      7.7800000000000011      40.844999999999999      52.515000000000001
   238   1      9.7249999999999996      38.899999999999999      52.515000000000001
   239   1      9.7249999999999996      40.844999999999999                   50.57
   240   1      7.7800000000000011      38.899999999999999      54.459999999999994
   241   1      7.7800000000000011      40.844999999999999      56.404999999999994
   242   1      9.7249999999999996      38.899999999999999      56.404999999999994
   243   1      9.7249999999999996      40.844999999999999      54.459999999999994
   244   1      7.7800000000000011      38.899999999999999      58.350000000000001
   245   1      7.7800000000000011      40.844999999999999      60.295000000000002
   246   1      9.7249999999999996      38.899999999999999      60.295000000000002
   247   1      9.7249999999999996      40.844999999999999      58.350000000000001
   248   1      7.7800000000000011      38.899999999999999      62.239999999999995
   249   1      7.7800000000000011      40.844999999999999      64.184999999999974
   250   1      9.7249999999999996      38.899999999999999      64.184999999999974
   251   1      9.7249999999999996      40.844999999999999      62.239999999999995
   252   1      9.7249999999999996      38.899999999999999      68.074999999999989
   253   1      9.7249999999999996      40.844999999999999      66.129999999999981
   254   1      9.7249999999999996      42.789999999999992      33.064999999999991
   255   1      9.7249999999999996      44.734999999999999      31.119999999999997
   256   1      7.7800000000000011      42.789999999999992      35.009999999999998
   257   1      7.7800000000000011      44.734999999999999      36.954999999999991
   258   1      9.7249999999999996      42.789999999999992      36.954999999999991
   259   1      9.7249999999999996      44.734999999999999      35.009999999999998
   260   1      7.7800000000000011      42.789999999999992      38.899999999999999
   261   1      7.7800000000000011      44.734999999999999      40.844999999999999
   262   1      9.7249999999999996      42.789999999999992      40.844999999999999
   263   1      9.7249999999999996      44.734999999999999      38.899999999999999
   264   1      7.7800000000000011      42.789999999999992      42.789999999999992
   265   1      7.7800000000000011      44.734999999999999      44.734999999999999
   266   1      9.7249999999999996      42.789999999999992      44.734999999999999
   267   1      9.7249999999999996      44.734999999999999      42.789999999999992
   268   1      7.7800000000000011      42.789999999999992      46.679999999999993
   269   1      7.7800000000000011      44.734999999999999      48.624999999999993
   270   1      9.7249999999999996      42.789999999999992      48.624999999999993
   271   1      9.7249999999999996      44.734999999999999      46.679999999999993
   272   1      7.7800000000000011      42.789999999999992                   50.57
   273   1      7.7800000000000011      44.734999999999999      52.515000000000001
   274   1      9.7249999999999996      42.789999999999992      52.515000000000001
   275   1      9.7249999999999996      44.734999999999999                   50.57
   276   1      7.7800000000000011      42.789999999999992      54.459999999999994
   277   1      7.7800000000000011      44.734999999999999      56.404999999999994
   278   1      9.7249999999999996      42.789999999999992      56.404999999999994
   279   1      9.7249999999999996      44.734999999999999      54.459999999999994
   280   1      7.7800000000000011      42.789999999999992      58.350000000000001
   281   1      7.7800000000000011      44.734999999999999      60.295000000000002
   282   1      9.7249999999999996      42.789999999999992      60.295000000000002
   283   1      9.7249999999999996      44.734999999999999      58.350000000000001
   284   1      7.7800000000000011      42.789999999999992      62.239999999999995
   285   1      7.7800000000000011      44.734999999999999      64.184999999999974
   286   1      9.7249999999999996      42.789999999999992      64.184999999999974
   287   1      9.7249999999999996      44.734999999999999      62.239999999999995
   288   1      7.7800000000000011      42.789999999999992      66.129999999999981
   289   1      9.7249999999999996      42.789999999999992      68.074999999999989
   290   1      9.7249999999999996      44.734999999999999      66.129999999999981
   291   1      9.7249999999999996      44.734999999999999      70.019999999999996
   292   1      9.7249999999999996      46.679999999999993      29.174999999999994
   293   1      7.7800000000000011      48.624999999999993      33.064999999999991
   294   1      9.7249999999999996      46.679999999999993      33.064999999999991
   295   1      9.7249999999999996      48.624999999999993      31.119999999999997
   296   1      7.7800000000000011      46.679999999999993      35.009999999999998
   297   1      7.7800000000000011      48.624999999999993      36.954999999999991
   298   1      9.7249999999999996      46.679999999999993      36.954999999999991
   299   1      9.7249999999999996      48.624999999999993      35.009999999999998
   300   1      7.7800000000000011      46.679999999999993      38.899999999999999
   301   1      7.7800000000000011      48.624999999999993      40.844999999999999
   302   1      9.7249999999999996      46.679999999999993      40.844999999999999
   303   1      9.7249999999999996      48.624999999999993      38.899999999999999
   304   1      7.7800000000000011      46.679999999999993      42.789999999999992
   305   1      7.7800000000000011      48.624999999999993      44.734999999999999
   306   1      9.7249999999999996      46.679999999999993      44.734999999999999
   307   1      9.7249999999999996      48.624999999999993      42.789999999999992
   308   1      7.7800000000000011      46.679999999999993      46.679999999999993
   309   1      7.7800000000000011      48.624999999999993      48.624999999999993
   310   1      9.7249999999999996      46.679999999999993      48.624999999999993
   311   1      9.7249999999999996      48.624999999999993      46.679999999999993
   312   1      7.7800000000000011      46.679999999999993                   50.57
   313   1      7.7800000000000011      48.624999999999993      52.515000000000001
   314   1      9.7249999999999996      46.679999999999993      52.515000000000001
   315   1      9.7249999999999996      48.624999999999993                   50.57
   316   1      7.7800000000000011      46.679999999999993      54.459999999999994
   317   1      7.7800000000000011      48.624999999999993      56.404999999999994
   318   1      9.7249999999999996      46.679999999999993      56.404999999999994
   319   1      9.7249999999999996      48.624999999999993      54.459999999999994
   320   1      7.7800000000000011      46.679999999999993      58.350000000000001
   321   1      7.7800000000000011      48.624999999999993      60.295000000000002
   322   1      9.7249999999999996      46.679999999999993      60.295000000000002
   323   1      9.7249999999999996      48.624999999999993      58.350000000000001
   324   1      7.7800000000000011      46.679999999999993      62.239999999999995
   325   1      7.7800000000000011      48.624999999999993      64.184999999999974
   326   1      9.7249999999999996      46.679999999999993      64.184999999999974
   327   1      9.7249999999999996      48.624999999999993      62.239999999999995
   328   1      7.7800000000000011      46.679999999999993      66.129999999999981
   329   1      7.7800000000000011      48.624999999999993      68.074999999999989
   330   1      9.7249999999999996      46.679999999999993      68.074999999999989
   331   1      9.7249999999999996      48.624999999999993      66.129999999999981
   332   1      9.7249999999999996      46.679999999999993      71.964999999999975
   333   1      9.7249999999999996      48.624999999999993      70.019999999999996
   334   1      9.7249999999999996                   50.57      29.174999999999994
   335   1      7.7800000000000011                   50.57      31.119999999999997
   336   1      7.7800000000000011      52.515000000000001      33.064999999999991
   337   1      9.7249999999999996                   50.57      33.064999999999991
   338   1      9.7249999999999996      52.515000000000001      31.119999999999997
   339   1      7.7800000000000011                   50.57      35.009999999999998
   340   1      7.7800000000000011      52.515000000000001      36.954999999999991
   341   1      9.7249999999999996                   50.57      36.954999999999991
   342   1      9.7249999999999996      52.515000000000001      35.009999999999998
   343   1      7.7800000000000011                   50.57      38.899999999999999
   344   1      7.7800000000000011      52.515000000000001      40.844999999999999
   345   1      9.7249999999999996                   50.57      40.844999999999999
   346   1      9.7249999999999996      52.515000000000001      38.899999999999999
   347   1      7.7800000000000011                   50.57      42.789999999999992
   348   1      7.7800000000000011      52.515000000000001      44.734999999999999
   349   1      9.7249999999999996                   50.57      44.734999999999999
   350   1      9.7249999999999996      52.515000000000001      42.789999999999992
   351   1      7.7800000000000011                   50.57      46.679999999999993
   352   1      7.7800000000000011      52.515000000000001      48.624999999999993
   353   1      9.7249999999999996                   50.57      48.624999999999993
   354   1      9.7249999999999996      52.515000000000001      46.679999999999993
   355   1      7.7800000000000011                   50.57                   50.57
   356   1      7.7800000000000011      52.515000000000001      52.515000000000001
   357   1      9.7249999999999996                   50.57      52.515000000000001
   358   1      9.7249999999999996      52.515000000000001                   50.57