model_files/Au/Au_30000/Au_411/data.Au_411_fcc_29957 (written by ASE) 

29957 	 atoms 
1  atom types
0.0                      99  xlo xhi
0.0                      99  ylo yhi
0.0                      99  zlo zhi


Atoms 

     1   1      2.0399999999999996      42.840000000000003      48.960000000000008
     2   1      2.0399999999999996       44.88000000000001      46.920000000000009
     3   1      2.0399999999999996      46.920000000000009       44.88000000000001
     4   1      2.0399999999999996       44.88000000000001      51.000000000000007
     5   1      2.0399999999999996      46.920000000000009      48.960000000000008
     6   1      2.0399999999999996      46.920000000000009      53.040000000000013
     7   1      2.0399999999999996      48.960000000000008      42.840000000000003
     8   1      2.0399999999999996      48.960000000000008      46.920000000000009
     9   1      2.0399999999999996      51.000000000000007       44.88000000000001
    10   1                       0      48.960000000000008      48.960000000000008
    11   1      2.0399999999999996      48.960000000000008      51.000000000000007
    12   1      2.0399999999999996      51.000000000000007      48.960000000000008
    13   1      2.0399999999999996      48.960000000000008      55.080000000000013
    14   1      2.0399999999999996      51.000000000000007      53.040000000000013
    15   1      2.0399999999999996      53.040000000000013      46.920000000000009
    16   1      2.0399999999999996      53.040000000000013      51.000000000000007
    17   1      2.0399999999999996      55.080000000000013      48.960000000000008
    18   1      6.1199999999999983      26.520000000000007      48.960000000000008
    19   1      6.1199999999999983      28.560000000000002      46.920000000000009
    20   1      6.1199999999999983      30.600000000000005       44.88000000000001
    21   1      6.1199999999999983      28.560000000000002      51.000000000000007
    22   1      6.1199999999999983      30.600000000000005      48.960000000000008
    23   1      6.1199999999999983      30.600000000000005      53.040000000000013
    24   1      6.1199999999999983      32.640000000000001      42.840000000000003
    25   1      6.1199999999999983      34.680000000000007      40.800000000000011
    26   1      4.0800000000000054      34.680000000000007      46.920000000000009
    27   1      6.1199999999999983      32.640000000000001      46.920000000000009
    28   1      6.1199999999999983      34.680000000000007       44.88000000000001
    29   1      4.0800000000000054      32.640000000000001      48.960000000000008
    30   1      4.0800000000000054      34.680000000000007      51.000000000000007
    31   1      6.1199999999999983      32.640000000000001      51.000000000000007
    32   1      6.1199999999999983      34.680000000000007      48.960000000000008
    33   1      6.1199999999999983      32.640000000000001      55.080000000000013
    34   1      6.1199999999999983      34.680000000000007      53.040000000000013
    35   1      6.1199999999999983      34.680000000000007      57.120000000000005
    36   1      6.1199999999999983      36.719999999999999      38.760000000000005
    37   1      6.1199999999999983      38.760000000000005      36.719999999999999
    38   1      4.0800000000000054      38.760000000000005      42.840000000000003
    39   1      6.1199999999999983      36.719999999999999      42.840000000000003
    40   1      6.1199999999999983      38.760000000000005      40.800000000000011
    41   1      4.0800000000000054      36.719999999999999       44.88000000000001
    42   1      4.0800000000000054      38.760000000000005      46.920000000000009
    43   1      6.1199999999999983      36.719999999999999      46.920000000000009
    44   1      6.1199999999999983      38.760000000000005       44.88000000000001
    45   1      4.0800000000000054      36.719999999999999      48.960000000000008
    46   1      4.0800000000000054      38.760000000000005      51.000000000000007
    47   1      6.1199999999999983      36.719999999999999      51.000000000000007
    48   1      6.1199999999999983      38.760000000000005      48.960000000000008
    49   1      4.0800000000000054      36.719999999999999      53.040000000000013
    50   1      4.0800000000000054      38.760000000000005      55.080000000000013
    51   1      6.1199999999999983      36.719999999999999      55.080000000000013
    52   1      6.1199999999999983      38.760000000000005      53.040000000000013
    53   1      6.1199999999999983      36.719999999999999      59.160000000000011
    54   1      6.1199999999999983      38.760000000000005      57.120000000000005
    55   1      6.1199999999999983      38.760000000000005       61.20000000000001
    56   1      6.1199999999999983      40.800000000000011      34.680000000000007
    57   1      6.1199999999999983      42.840000000000003      32.640000000000001
    58   1      4.0800000000000054      42.840000000000003      38.760000000000005
    59   1      6.1199999999999983      40.800000000000011      38.760000000000005
    60   1      6.1199999999999983      42.840000000000003      36.719999999999999
    61   1      4.0800000000000054      40.800000000000011      40.800000000000011
    62   1      4.0800000000000054      42.840000000000003      42.840000000000003
    63   1      6.1199999999999983      40.800000000000011      42.840000000000003
    64   1      6.1199999999999983      42.840000000000003      40.800000000000011
    65   1      4.0800000000000054      40.800000000000011       44.88000000000001
    66   1      4.0800000000000054      42.840000000000003      46.920000000000009
    67   1      6.1199999999999983      40.800000000000011      46.920000000000009
    68   1      6.1199999999999983      42.840000000000003       44.88000000000001
    69   1      4.0800000000000054      40.800000000000011      48.960000000000008
    70   1      4.0800000000000054      42.840000000000003      51.000000000000007
    71   1      6.1199999999999983      40.800000000000011      51.000000000000007
    72   1      6.1199999999999983      42.840000000000003      48.960000000000008
    73   1      4.0800000000000054      40.800000000000011      53.040000000000013
    74   1      4.0800000000000054      42.840000000000003      55.080000000000013
    75   1      6.1199999999999983      40.800000000000011      55.080000000000013
    76   1      6.1199999999999983      42.840000000000003      53.040000000000013
    77   1      4.0800000000000054      40.800000000000011      57.120000000000005
    78   1      4.0800000000000054      42.840000000000003      59.160000000000011
    79   1      6.1199999999999983      40.800000000000011      59.160000000000011
    80   1      6.1199999999999983      42.840000000000003      57.120000000000005
    81   1      6.1199999999999983      40.800000000000011      63.240000000000009
    82   1      6.1199999999999983      42.840000000000003       61.20000000000001
    83   1      6.1199999999999983      42.840000000000003      65.280000000000001
    84   1      6.1199999999999983       44.88000000000001      30.600000000000005
    85   1      6.1199999999999983      46.920000000000009      28.560000000000002
    86   1      4.0800000000000054      46.920000000000009      34.680000000000007
    87   1      6.1199999999999983       44.88000000000001      34.680000000000007
    88   1      6.1199999999999983      46.920000000000009      32.640000000000001
    89   1      4.0800000000000054       44.88000000000001      36.719999999999999
    90   1      4.0800000000000054      46.920000000000009      38.760000000000005
    91   1      6.1199999999999983       44.88000000000001      38.760000000000005
    92   1      6.1199999999999983      46.920000000000009      36.719999999999999
    93   1      4.0800000000000054       44.88000000000001      40.800000000000011
    94   1      4.0800000000000054      46.920000000000009      42.840000000000003
    95   1      6.1199999999999983       44.88000000000001      42.840000000000003
    96   1      6.1199999999999983      46.920000000000009      40.800000000000011
    97   1      4.0800000000000054       44.88000000000001       44.88000000000001
    98   1      4.0800000000000054      46.920000000000009      46.920000000000009
    99   1      6.1199999999999983       44.88000000000001      46.920000000000009
   100   1      6.1199999999999983      46.920000000000009       44.88000000000001
   101   1      4.0800000000000054       44.88000000000001      48.960000000000008
   102   1      4.0800000000000054      46.920000000000009      51.000000000000007
   103   1      6.1199999999999983       44.88000000000001      51.000000000000007
   104   1      6.1199999999999983      46.920000000000009      48.960000000000008
   105   1      4.0800000000000054       44.88000000000001      53.040000000000013
   106   1      4.0800000000000054      46.920000000000009      55.080000000000013
   107   1      6.1199999999999983       44.88000000000001      55.080000000000013
   108   1      6.1199999999999983      46.920000000000009      53.040000000000013
   109   1      4.0800000000000054       44.88000000000001      57.120000000000005
   110   1      4.0800000000000054      46.920000000000009      59.160000000000011
   111   1      6.1199999999999983       44.88000000000001      59.160000000000011
   112   1      6.1199999999999983      46.920000000000009      57.120000000000005
   113   1      4.0800000000000054       44.88000000000001       61.20000000000001
   114   1      4.0800000000000054      46.920000000000009      63.240000000000009
   115   1      6.1199999999999983       44.88000000000001      63.240000000000009
   116   1      6.1199999999999983      46.920000000000009       61.20000000000001
   117   1      6.1199999999999983       44.88000000000001      67.320000000000022
   118   1      6.1199999999999983      46.920000000000009      65.280000000000001
   119   1      6.1199999999999983      46.920000000000009      69.360000000000014
   120   1      6.1199999999999983      48.960000000000008      26.520000000000007
   121   1      6.1199999999999983      48.960000000000008      30.600000000000005
   122   1      6.1199999999999983      51.000000000000007      28.560000000000002
   123   1      4.0800000000000054      48.960000000000008      32.640000000000001
   124   1      4.0800000000000054      51.000000000000007      34.680000000000007
   125   1      6.1199999999999983      48.960000000000008      34.680000000000007
   126   1      6.1199999999999983      51.000000000000007      32.640000000000001
   127   1      4.0800000000000054      48.960000000000008      36.719999999999999
   128   1      4.0800000000000054      51.000000000000007      38.760000000000005
   129   1      6.1199999999999983      48.960000000000008      38.760000000000005
   130   1      6.1199999999999983      51.000000000000007      36.719999999999999
   131   1      4.0800000000000054      48.960000000000008      40.800000000000011
   132   1      4.0800000000000054      51.000000000000007      42.840000000000003
   133   1      6.1199999999999983      48.960000000000008      42.840000000000003
   134   1      6.1199999999999983      51.000000000000007      40.800000000000011
   135   1      4.0800000000000054      48.960000000000008       44.88000000000001
   136   1      4.0800000000000054      51.000000000000007      46.920000000000009
   137   1      6.1199999999999983      48.960000000000008      46.920000000000009
   138   1      6.1199999999999983      51.000000000000007       44.88000000000001
   139   1      4.0800000000000054      48.960000000000008      48.960000000000008
   140   1      4.0800000000000054      51.000000000000007      51.000000000000007
   141   1      6.1199999999999983      48.960000000000008      51.000000000000007
   142   1      6.1199999999999983      51.000000000000007      48.960000000000008
   143   1      4.0800000000000054      48.960000000000008      53.040000000000013
   144   1      4.0800000000000054      51.000000000000007      55.080000000000013
   145   1      6.1199999999999983      48.960000000000008      55.080000000000013
   146   1      6.1199999999999983      51.000000000000007      53.040000000000013
   147   1      4.0800000000000054      48.960000000000008      57.120000000000005
   148   1      4.0800000000000054      51.000000000000007      59.160000000000011
   149   1      6.1199999999999983      48.960000000000008      59.160000000000011
   150   1      6.1199999999999983      51.000000000000007      57.120000000000005
   151   1      4.0800000000000054      48.960000000000008       61.20000000000001
   152   1      4.0800000000000054      51.000000000000007      63.240000000000009
   153   1      6.1199999999999983      48.960000000000008      63.240000000000009
   154   1      6.1199999999999983      51.000000000000007       61.20000000000001
   155   1      4.0800000000000054      48.960000000000008      65.280000000000001
   156   1      6.1199999999999983      48.960000000000008      67.320000000000022
   157   1      6.1199999999999983      51.000000000000007      65.280000000000001
   158   1      6.1199999999999983      48.960000000000008      71.400000000000006
   159   1      6.1199999999999983      51.000000000000007      69.360000000000014
   160   1      6.1199999999999983      53.040000000000013      30.600000000000005
   161   1      6.1199999999999983      53.040000000000013      34.680000000000007
   162   1      6.1199999999999983      55.080000000000013      32.640000000000001
   163   1      4.0800000000000054      53.040000000000013      36.719999999999999
   164   1      4.0800000000000054      55.080000000000013      38.760000000000005
   165   1      6.1199999999999983      53.040000000000013      38.760000000000005
   166   1      6.1199999999999983      55.080000000000013      36.719999999999999
   167   1      4.0800000000000054      53.040000000000013      40.800000000000011
   168   1      4.0800000000000054      55.080000000000013      42.840000000000003
   169   1      6.1199999999999983      53.040000000000013      42.840000000000003
   170   1      6.1199999999999983      55.080000000000013      40.800000000000011
   171   1      4.0800000000000054      53.040000000000013       44.88000000000001
   172   1      4.0800000000000054      55.080000000000013      46.920000000000009
   173   1      6.1199999999999983      53.040000000000013      46.920000000000009
   174   1      6.1199999999999983      55.080000000000013       44.88000000000001
   175   1      4.0800000000000054      53.040000000000013      48.960000000000008
   176   1      4.0800000000000054      55.080000000000013      51.000000000000007
   177   1      6.1199999999999983      53.040000000000013      51.000000000000007
   178   1      6.1199999999999983      55.080000000000013      48.960000000000008
   179   1      4.0800000000000054      53.040000000000013      53.040000000000013
   180   1      4.0800000000000054      55.080000000000013      55.080000000000013
   181   1      6.1199999999999983      53.040000000000013      55.080000000000013
   182   1      6.1199999999999983      55.080000000000013      53.040000000000013
   183   1      4.0800000000000054      53.040000000000013      57.120000000000005
   184   1      4.0800000000000054      55.080000000000013      59.160000000000011
   185   1      6.1199999999999983      53.040000000000013      59.160000000000011
   186   1      6.1199999999999983      55.080000000000013      57.120000000000005
   187   1      4.0800000000000054      53.040000000000013       61.20000000000001
   188   1      6.1199999999999983      53.040000000000013      63.240000000000009
   189   1      6.1199999999999983      55.080000000000013       61.20000000000001
   190   1      6.1199999999999983      53.040000000000013      67.320000000000022
   191   1      6.1199999999999983      55.080000000000013      65.280000000000001
   192   1      6.1199999999999983      57.120000000000005      34.680000000000007
   193   1      6.1199999999999983      57.120000000000005      38.760000000000005
   194   1      6.1199999999999983      59.160000000000011      36.719999999999999
   195   1      4.0800000000000054      57.120000000000005      40.800000000000011
   196   1      4.0800000000000054      59.160000000000011      42.840000000000003
   197   1      6.1199999999999983      57.120000000000005      42.840000000000003
   198   1      6.1199999999999983      59.160000000000011      40.800000000000011
   199   1      4.0800000000000054      57.120000000000005       44.88000000000001
   200   1      4.0800000000000054      59.160000000000011      46.920000000000009
   201   1      6.1199999999999983      57.120000000000005      46.920000000000009
   202   1      6.1199999999999983      59.160000000000011       44.88000000000001
   203   1      4.0800000000000054      57.120000000000005      48.960000000000008
   204   1      4.0800000000000054      59.160000000000011      51.000000000000007
   205   1      6.1199999999999983      57.120000000000005      51.000000000000007
   206   1      6.1199999999999983      59.160000000000011      48.960000000000008
   207   1      4.0800000000000054      57.120000000000005      53.040000000000013
   208   1      4.0800000000000054      59.160000000000011      55.080000000000013
   209   1      6.1199999999999983      57.120000000000005      55.080000000000013
   210   1      6.1199999999999983      59.160000000000011      53.040000000000013
   211   1      4.0800000000000054      57.120000000000005      57.120000000000005
   212   1      6.1199999999999983      57.120000000000005      59.160000000000011
   213   1      6.1199999999999983      59.160000000000011      57.120000000000005
   214   1      6.1199999999999983      57.120000000000005      63.240000000000009
   215   1      6.1199999999999983      59.160000000000011       61.20000000000001
   216   1      6.1199999999999983       61.20000000000001      38.760000000000005
   217   1      6.1199999999999983       61.20000000000001      42.840000000000003
   218   1      6.1199999999999983      63.240000000000009      40.800000000000011
   219   1      4.0800000000000054       61.20000000000001       44.88000000000001
   220   1      4.0800000000000054      63.240000000000009      46.920000000000009
   221   1      6.1199999999999983       61.20000000000001      46.920000000000009
   222   1      6.1199999999999983      63.240000000000009       44.88000000000001
   223   1      4.0800000000000054       61.20000000000001      48.960000000000008
   224   1      4.0800000000000054      63.240000000000009      51.000000000000007
   225   1      6.1199999999999983       61.20000000000001      51.000000000000007
   226   1      6.1199999999999983      63.240000000000009      48.960000000000008
   227   1      4.0800000000000054       61.20000000000001      53.040000000000013
   228   1      6.1199999999999983       61.20000000000001      55.080000000000013
   229   1      6.1199999999999983      63.240000000000009      53.040000000000013
   230   1      6.1199999999999983       61.20000000000001      59.160000000000011
   231   1      6.1199999999999983      63.240000000000009      57.120000000000005
   232   1      6.1199999999999983      65.280000000000001      42.840000000000003
   233   1      6.1199999999999983      65.280000000000001      46.920000000000009
   234   1      6.1199999999999983      67.320000000000022       44.88000000000001
   235   1      4.0800000000000054      65.280000000000001      48.960000000000008
   236   1      6.1199999999999983      65.280000000000001      51.000000000000007
   237   1      6.1199999999999983      67.320000000000022      48.960000000000008
   238   1      6.1199999999999983      65.280000000000001      55.080000000000013
   239   1      6.1199999999999983      67.320000000000022      53.040000000000013
   240   1      6.1199999999999983      69.360000000000014      46.920000000000009
   241   1      6.1199999999999983      69.360000000000014      51.000000000000007
   242   1      6.1199999999999983      71.400000000000006      48.960000000000008
   243   1      10.200000000000005      10.200000000000005      48.960000000000008
   244   1      10.200000000000005      12.240000000000004      46.920000000000009
   245   1      10.200000000000005      14.280000000000001       44.88000000000001
   246   1      10.200000000000005      12.240000000000004      51.000000000000007
   247   1      10.200000000000005      14.280000000000001      48.960000000000008
   248   1      10.200000000000005      14.280000000000001      53.040000000000013
   249   1      10.200000000000005                   16.32      42.840000000000003
   250   1      10.200000000000005      18.359999999999999      40.800000000000011
   251   1      8.1600000000000037      18.359999999999999      46.920000000000009
   252   1      10.200000000000005                   16.32      46.920000000000009
   253   1      10.200000000000005      18.359999999999999       44.88000000000001
   254   1      8.1600000000000037                   16.32      48.960000000000008
   255   1      8.1600000000000037      18.359999999999999      51.000000000000007
   256   1      10.200000000000005                   16.32      51.000000000000007
   257   1      10.200000000000005      18.359999999999999      48.960000000000008
   258   1      10.200000000000005                   16.32      55.080000000000013
   259   1      10.200000000000005      18.359999999999999      53.040000000000013
   260   1      10.200000000000005      18.359999999999999      57.120000000000005
   261   1      10.200000000000005      20.400000000000006      38.760000000000005
   262   1      10.200000000000005      22.440000000000005      36.719999999999999
   263   1      8.1600000000000037      22.440000000000005      42.840000000000003
   264   1      10.200000000000005      20.400000000000006      42.840000000000003
   265   1      10.200000000000005      22.440000000000005      40.800000000000011
   266   1      8.1600000000000037      20.400000000000006       44.88000000000001
   267   1      8.1600000000000037      22.440000000000005      46.920000000000009
   268   1      10.200000000000005      20.400000000000006      46.920000000000009
   269   1      10.200000000000005      22.440000000000005       44.88000000000001
   270   1      8.1600000000000037      20.400000000000006      48.960000000000008
   271   1      8.1600000000000037      22.440000000000005      51.000000000000007
   272   1      10.200000000000005      20.400000000000006      51.000000000000007
   273   1      10.200000000000005      22.440000000000005      48.960000000000008
   274   1      8.1600000000000037      20.400000000000006      53.040000000000013
   275   1      8.1600000000000037      22.440000000000005      55.080000000000013
   276   1      10.200000000000005      20.400000000000006      55.080000000000013
   277   1      10.200000000000005      22.440000000000005      53.040000000000013
   278   1      10.200000000000005      20.400000000000006      59.160000000000011
   279   1      10.200000000000005      22.440000000000005      57.120000000000005
   280   1      10.200000000000005      22.440000000000005       61.20000000000001
   281   1      10.200000000000005      24.480000000000008      34.680000000000007
   282   1      10.200000000000005      26.520000000000007      32.640000000000001
   283   1      8.1600000000000037      26.520000000000007      38.760000000000005
   284   1      10.200000000000005      24.480000000000008      38.760000000000005
   285   1      10.200000000000005      26.520000000000007      36.719999999999999
   286   1      8.1600000000000037      24.480000000000008      40.800000000000011
   287   1      8.1600000000000037      26.520000000000007      42.840000000000003
   288   1      10.200000000000005      24.480000000000008      42.840000000000003
   289   1      10.200000000000005      26.520000000000007      40.800000000000011
   290   1      8.1600000000000037      24.480000000000008       44.88000000000001
   291   1      8.1600000000000037      26.520000000000007      46.920000000000009
   292   1      10.200000000000005      24.480000000000008      46.920000000000009
   293   1      10.200000000000005      26.520000000000007       44.88000000000001
   294   1      8.1600000000000037      24.480000000000008      48.960000000000008
   295   1      8.1600000000000037      26.520000000000007      51.000000000000007
   296   1      10.200000000000005      24.480000000000008      51.000000000000007
   297   1      10.200000000000005      26.520000000000007      48.960000000000008
   298   1      8.1600000000000037      24.480000000000008      53.040000000000013
   299   1      8.1600000000000037      26.520000000000007      55.080000000000013
   300   1      10.200000000000005      24.480000000000008      55.080000000000013
   301   1      10.200000000000005      26.520000000000007      53.040000000000013
   302   1      8.1600000000000037      24.480000000000008      57.120000000000005
   303   1      8.1600000000000037      26.520000000000007      59.160000000000011
   304   1      10.200000000000005      24.480000000000008      59.160000000000011
   305   1      10.200000000000005      26.520000000000007      57.120000000000005
   306   1      10.200000000000005      24.480000000000008      63.240000000000009
   307   1      10.200000000000005      26.520000000000007       61.20000000000001
   308   1      10.200000000000005      26.520000000000007      65.280000000000001
   309   1      10.200000000000005      28.560000000000002      30.600000000000005
   310   1      10.200000000000005      30.600000000000005      28.560000000000002
   311   1      8.1600000000000037      30.600000000000005      34.680000000000007
   312   1      10.200000000000005      28.560000000000002      34.680000000000007
   313   1      10.200000000000005      30.600000000000005      32.640000000000001
   314   1      8.1600000000000037      28.560000000000002      36.719999999999999
   315   1      8.1600000000000037      30.600000000000005      38.760000000000005
   316   1      10.200000000000005      28.560000000000002      38.760000000000005
   317   1      10.200000000000005      30.600000000000005      36.719999999999999
   318   1      8.1600000000000037      28.560000000000002      40.800000000000011
   319   1      8.1600000000000037      30.600000000000005      42.840000000000003
   320   1      10.200000000000005      28.560000000000002      42.840000000000003
   321   1      10.200000000000005      30.600000000000005      40.800000000000011
   322   1      8.1600000000000037      28.560000000000002       44.88000000000001
   323   1      8.1600000000000037      30.600000000000005      46.920000000000009
   324   1      10.200000000000005      28.560000000000002      46.920000000000009
   325   1      10.200000000000005      30.600000000000005       44.88000000000001
   326   1      8.1600000000000037      28.560000000000002      48.960000000000008
   327   1      8.1600000000000037      30.600000000000005      51.000000000000007
   328   1      10.200000000000005      28.560000000000002      51.000000000000007
   329   1      10.200000000000005      30.600000000000005      48.960000000000008
   330   1      8.1600000000000037      28.560000000000002      53.040000000000013
   331   1      8.1600000000000037      30.600000000000005      55.080000000000013
   332   1      10.200000000000005      28.560000000000002      55.080000000000013
   333   1      10.200000000000005      30.600000000000005      53.040000000000013
   334   1      8.1600000000000037      28.560000000000002      57.120000000000005
   335   1      8.1600000000000037      30.600000000000005      59.160000000000011
   336   1      10.200000000000005      28.560000000000002      59.160000000000011
   337   1      10.200000000000005      30.600000000000005      57.120000000000005
   338   1      8.1600000000000037      28.560000000000002       61.20000000000001
   339   1      8.1600000000000037      30.600000000000005      63.240000000000009
   340   1      10.200000000000005      28.560000000000002      63.240000000000009
   341   1      10.200000000000005      30.600000000000005       61.20000000000001
   342   1      10.200000000000005      28.560000000000002      67.320000000000022
   343   1      10.200000000000005      30.600000000000005      65.280000000000001
   344   1      10.200000000000005      30.600000000000005      69.360000000000014
   345   1      10.200000000000005      32.640000000000001      26.520000000000007
   346   1      10.200000000000005      34.680000000000007      24.480000000000008
   347   1      8.1600000000000037      34.680000000000007      30.600000000000005
   348   1      10.200000000000005      32.640000000000001      30.600000000000005
   349   1      10.200000000000005      34.680000000000007      28.560000000000002
   350   1      8.1600000000000037      32.640000000000001      32.640000000000001
   351   1      8.1600000000000037      34.680000000000007      34.680000000000007
   352   1      10.200000000000005      32.640000000000001      34.680000000000007
   353   1      10.200000000000005      34.680000000000007      32.640000000000001
   354   1      8.1600000000000037      32.640000000000001      36.719999999999999
   355   1      8.1600000000000037      34.680000000000007      38.760000000000005
   356   1      10.200000000000005      32.640000000000001      38.760000000000005
   357   1      10.200000000000005      34.680000000000007      36.719999999999999
   358   1      8.1600000000000037      32.640000000000001      40.800000000000011