model_files/Pt/Pt_3000/Pt_540/data.Pt_540_fcc_2977 (written by ASE) 

2977 	 atoms 
1  atom types
0.0                      49  xlo xhi
0.0                      49  ylo yhi
0.0                      49  zlo zhi


Atoms 

     1   1      1.9600000000000042      17.640000000000008      19.600000000000005
     2   1      1.9600000000000042      17.640000000000008      23.520000000000003
     3   1      1.9600000000000042      17.640000000000008      27.440000000000001
     4   1      1.9600000000000042      19.600000000000005      17.640000000000008
     5   1  7.1054273576010011e-15      21.560000000000002      21.560000000000002
     6   1      1.9600000000000042      19.600000000000005      21.560000000000002
     7   1      1.9600000000000042      21.560000000000002      19.600000000000005
     8   1  7.1054273576010011e-15      21.560000000000002                   25.48
     9   1      1.9600000000000042      19.600000000000005                   25.48
    10   1      1.9600000000000042      21.560000000000002      23.520000000000003
    11   1      1.9600000000000042      19.600000000000005      29.400000000000006
    12   1      1.9600000000000042      21.560000000000002      27.440000000000001
    13   1      1.9600000000000042      23.520000000000003      17.640000000000008
    14   1  7.1054273576010011e-15                   25.48      21.560000000000002
    15   1      1.9600000000000042      23.520000000000003      21.560000000000002
    16   1      1.9600000000000042                   25.48      19.600000000000005
    17   1  7.1054273576010011e-15      23.520000000000003      23.520000000000003
    18   1  7.1054273576010011e-15                   25.48                   25.48
    19   1      1.9600000000000042      23.520000000000003                   25.48
    20   1      1.9600000000000042                   25.48      23.520000000000003
    21   1      1.9600000000000042      23.520000000000003      29.400000000000006
    22   1      1.9600000000000042                   25.48      27.440000000000001
    23   1      1.9600000000000042      27.440000000000001      17.640000000000008
    24   1      1.9600000000000042      27.440000000000001      21.560000000000002
    25   1      1.9600000000000042      29.400000000000006      19.600000000000005
    26   1      1.9600000000000042      27.440000000000001                   25.48
    27   1      1.9600000000000042      29.400000000000006      23.520000000000003
    28   1      1.9600000000000042      27.440000000000001      29.400000000000006
    29   1      1.9600000000000042      29.400000000000006      27.440000000000001
    30   1      5.8800000000000061      13.720000000000004      15.680000000000005
    31   1      5.8800000000000061      13.720000000000004      19.600000000000005
    32   1      5.8800000000000061      13.720000000000004      23.520000000000003
    33   1      5.8800000000000061      13.720000000000004      27.440000000000001
    34   1      5.8800000000000061      13.720000000000004      31.360000000000007
    35   1      5.8800000000000061      15.680000000000005      13.720000000000004
    36   1      3.9200000000000048      15.680000000000005      15.680000000000005
    37   1      3.9200000000000048      17.640000000000008      17.640000000000008
    38   1      5.8800000000000061      15.680000000000005      17.640000000000008
    39   1      5.8800000000000061      17.640000000000008      15.680000000000005
    40   1      3.9200000000000048      15.680000000000005      19.600000000000005
    41   1      3.9200000000000048      17.640000000000008      21.560000000000002
    42   1      5.8800000000000061      15.680000000000005      21.560000000000002
    43   1      5.8800000000000061      17.640000000000008      19.600000000000005
    44   1      3.9200000000000048      15.680000000000005      23.520000000000003
    45   1      3.9200000000000048      17.640000000000008                   25.48
    46   1      5.8800000000000061      15.680000000000005                   25.48
    47   1      5.8800000000000061      17.640000000000008      23.520000000000003
    48   1      3.9200000000000048      15.680000000000005      27.440000000000001
    49   1      3.9200000000000048      17.640000000000008      29.400000000000006
    50   1      5.8800000000000061      15.680000000000005      29.400000000000006
    51   1      5.8800000000000061      17.640000000000008      27.440000000000001
    52   1      3.9200000000000048      15.680000000000005      31.360000000000007
    53   1      5.8800000000000061      15.680000000000005                   33.32
    54   1      5.8800000000000061      17.640000000000008      31.360000000000007
    55   1      5.8800000000000061      19.600000000000005      13.720000000000004
    56   1      3.9200000000000048      19.600000000000005      15.680000000000005
    57   1      3.9200000000000048      21.560000000000002      17.640000000000008
    58   1      5.8800000000000061      19.600000000000005      17.640000000000008
    59   1      5.8800000000000061      21.560000000000002      15.680000000000005
    60   1      3.9200000000000048      19.600000000000005      19.600000000000005
    61   1      3.9200000000000048      21.560000000000002      21.560000000000002
    62   1      5.8800000000000061      19.600000000000005      21.560000000000002
    63   1      5.8800000000000061      21.560000000000002      19.600000000000005
    64   1      3.9200000000000048      19.600000000000005      23.520000000000003
    65   1      3.9200000000000048      21.560000000000002                   25.48
    66   1      5.8800000000000061      19.600000000000005                   25.48
    67   1      5.8800000000000061      21.560000000000002      23.520000000000003
    68   1      3.9200000000000048      19.600000000000005      27.440000000000001
    69   1      3.9200000000000048      21.560000000000002      29.400000000000006
    70   1      5.8800000000000061      19.600000000000005      29.400000000000006
    71   1      5.8800000000000061      21.560000000000002      27.440000000000001
    72   1      3.9200000000000048      19.600000000000005      31.360000000000007
    73   1      5.8800000000000061      19.600000000000005                   33.32
    74   1      5.8800000000000061      21.560000000000002      31.360000000000007
    75   1      5.8800000000000061      23.520000000000003      13.720000000000004
    76   1      3.9200000000000048      23.520000000000003      15.680000000000005
    77   1      3.9200000000000048                   25.48      17.640000000000008
    78   1      5.8800000000000061      23.520000000000003      17.640000000000008
    79   1      5.8800000000000061                   25.48      15.680000000000005
    80   1      3.9200000000000048      23.520000000000003      19.600000000000005
    81   1      3.9200000000000048                   25.48      21.560000000000002
    82   1      5.8800000000000061      23.520000000000003      21.560000000000002
    83   1      5.8800000000000061                   25.48      19.600000000000005
    84   1      3.9200000000000048      23.520000000000003      23.520000000000003
    85   1      3.9200000000000048                   25.48                   25.48
    86   1      5.8800000000000061      23.520000000000003                   25.48
    87   1      5.8800000000000061                   25.48      23.520000000000003
    88   1      3.9200000000000048      23.520000000000003      27.440000000000001
    89   1      3.9200000000000048                   25.48      29.400000000000006
    90   1      5.8800000000000061      23.520000000000003      29.400000000000006
    91   1      5.8800000000000061                   25.48      27.440000000000001
    92   1      3.9200000000000048      23.520000000000003      31.360000000000007
    93   1      5.8800000000000061      23.520000000000003                   33.32
    94   1      5.8800000000000061                   25.48      31.360000000000007
    95   1      5.8800000000000061      27.440000000000001      13.720000000000004
    96   1      3.9200000000000048      27.440000000000001      15.680000000000005
    97   1      3.9200000000000048      29.400000000000006      17.640000000000008
    98   1      5.8800000000000061      27.440000000000001      17.640000000000008
    99   1      5.8800000000000061      29.400000000000006      15.680000000000005
   100   1      3.9200000000000048      27.440000000000001      19.600000000000005
   101   1      3.9200000000000048      29.400000000000006      21.560000000000002
   102   1      5.8800000000000061      27.440000000000001      21.560000000000002
   103   1      5.8800000000000061      29.400000000000006      19.600000000000005
   104   1      3.9200000000000048      27.440000000000001      23.520000000000003
   105   1      3.9200000000000048      29.400000000000006                   25.48
   106   1      5.8800000000000061      27.440000000000001                   25.48
   107   1      5.8800000000000061      29.400000000000006      23.520000000000003
   108   1      3.9200000000000048      27.440000000000001      27.440000000000001
   109   1      3.9200000000000048      29.400000000000006      29.400000000000006
   110   1      5.8800000000000061      27.440000000000001      29.400000000000006
   111   1      5.8800000000000061      29.400000000000006      27.440000000000001
   112   1      3.9200000000000048      27.440000000000001      31.360000000000007
   113   1      5.8800000000000061      27.440000000000001                   33.32
   114   1      5.8800000000000061      29.400000000000006      31.360000000000007
   115   1      5.8800000000000061      31.360000000000007      13.720000000000004
   116   1      3.9200000000000048      31.360000000000007      15.680000000000005
   117   1      5.8800000000000061      31.360000000000007      17.640000000000008
   118   1      5.8800000000000061                   33.32      15.680000000000005
   119   1      3.9200000000000048      31.360000000000007      19.600000000000005
   120   1      5.8800000000000061      31.360000000000007      21.560000000000002
   121   1      5.8800000000000061                   33.32      19.600000000000005
   122   1      3.9200000000000048      31.360000000000007      23.520000000000003
   123   1      5.8800000000000061      31.360000000000007                   25.48
   124   1      5.8800000000000061                   33.32      23.520000000000003
   125   1      3.9200000000000048      31.360000000000007      27.440000000000001
   126   1      5.8800000000000061      31.360000000000007      29.400000000000006
   127   1      5.8800000000000061                   33.32      27.440000000000001
   128   1      3.9200000000000048      31.360000000000007      31.360000000000007
   129   1      5.8800000000000061      31.360000000000007                   33.32
   130   1      5.8800000000000061                   33.32      31.360000000000007
   131   1      9.8000000000000025      9.8000000000000025      11.760000000000003
   132   1      9.8000000000000025      9.8000000000000025      15.680000000000005
   133   1      9.8000000000000025      9.8000000000000025      19.600000000000005
   134   1      9.8000000000000025      9.8000000000000025      23.520000000000003
   135   1      9.8000000000000025      9.8000000000000025      27.440000000000001
   136   1      9.8000000000000025      9.8000000000000025      31.360000000000007
   137   1      9.8000000000000025      9.8000000000000025      35.280000000000001
   138   1      9.8000000000000025      11.760000000000003      9.8000000000000025
   139   1      7.8400000000000043      11.760000000000003      11.760000000000003
   140   1      7.8400000000000043      13.720000000000004      13.720000000000004
   141   1      9.8000000000000025      11.760000000000003      13.720000000000004
   142   1      9.8000000000000025      13.720000000000004      11.760000000000003
   143   1      7.8400000000000043      11.760000000000003      15.680000000000005
   144   1      7.8400000000000043      13.720000000000004      17.640000000000008
   145   1      9.8000000000000025      11.760000000000003      17.640000000000008
   146   1      9.8000000000000025      13.720000000000004      15.680000000000005
   147   1      7.8400000000000043      11.760000000000003      19.600000000000005
   148   1      7.8400000000000043      13.720000000000004      21.560000000000002
   149   1      9.8000000000000025      11.760000000000003      21.560000000000002
   150   1      9.8000000000000025      13.720000000000004      19.600000000000005
   151   1      7.8400000000000043      11.760000000000003      23.520000000000003
   152   1      7.8400000000000043      13.720000000000004                   25.48
   153   1      9.8000000000000025      11.760000000000003                   25.48
   154   1      9.8000000000000025      13.720000000000004      23.520000000000003
   155   1      7.8400000000000043      11.760000000000003      27.440000000000001
   156   1      7.8400000000000043      13.720000000000004      29.400000000000006
   157   1      9.8000000000000025      11.760000000000003      29.400000000000006
   158   1      9.8000000000000025      13.720000000000004      27.440000000000001
   159   1      7.8400000000000043      11.760000000000003      31.360000000000007
   160   1      7.8400000000000043      13.720000000000004                   33.32
   161   1      9.8000000000000025      11.760000000000003                   33.32
   162   1      9.8000000000000025      13.720000000000004      31.360000000000007
   163   1      7.8400000000000043      11.760000000000003      35.280000000000001
   164   1      9.8000000000000025      11.760000000000003      37.240000000000009
   165   1      9.8000000000000025      13.720000000000004      35.280000000000001
   166   1      9.8000000000000025      15.680000000000005      9.8000000000000025
   167   1      7.8400000000000043      15.680000000000005      11.760000000000003
   168   1      7.8400000000000043      17.640000000000008      13.720000000000004
   169   1      9.8000000000000025      15.680000000000005      13.720000000000004
   170   1      9.8000000000000025      17.640000000000008      11.760000000000003
   171   1      7.8400000000000043      15.680000000000005      15.680000000000005
   172   1      7.8400000000000043      17.640000000000008      17.640000000000008
   173   1      9.8000000000000025      15.680000000000005      17.640000000000008
   174   1      9.8000000000000025      17.640000000000008      15.680000000000005
   175   1      7.8400000000000043      15.680000000000005      19.600000000000005
   176   1      7.8400000000000043      17.640000000000008      21.560000000000002
   177   1      9.8000000000000025      15.680000000000005      21.560000000000002
   178   1      9.8000000000000025      17.640000000000008      19.600000000000005
   179   1      7.8400000000000043      15.680000000000005      23.520000000000003
   180   1      7.8400000000000043      17.640000000000008                   25.48
   181   1      9.8000000000000025      15.680000000000005                   25.48
   182   1      9.8000000000000025      17.640000000000008      23.520000000000003
   183   1      7.8400000000000043      15.680000000000005      27.440000000000001
   184   1      7.8400000000000043      17.640000000000008      29.400000000000006
   185   1      9.8000000000000025      15.680000000000005      29.400000000000006
   186   1      9.8000000000000025      17.640000000000008      27.440000000000001
   187   1      7.8400000000000043      15.680000000000005      31.360000000000007
   188   1      7.8400000000000043      17.640000000000008                   33.32
   189   1      9.8000000000000025      15.680000000000005                   33.32
   190   1      9.8000000000000025      17.640000000000008      31.360000000000007
   191   1      7.8400000000000043      15.680000000000005      35.280000000000001
   192   1      9.8000000000000025      15.680000000000005      37.240000000000009
   193   1      9.8000000000000025      17.640000000000008      35.280000000000001
   194   1      9.8000000000000025      19.600000000000005      9.8000000000000025
   195   1      7.8400000000000043      19.600000000000005      11.760000000000003
   196   1      7.8400000000000043      21.560000000000002      13.720000000000004
   197   1      9.8000000000000025      19.600000000000005      13.720000000000004
   198   1      9.8000000000000025      21.560000000000002      11.760000000000003
   199   1      7.8400000000000043      19.600000000000005      15.680000000000005
   200   1      7.8400000000000043      21.560000000000002      17.640000000000008
   201   1      9.8000000000000025      19.600000000000005      17.640000000000008
   202   1      9.8000000000000025      21.560000000000002      15.680000000000005
   203   1      7.8400000000000043      19.600000000000005      19.600000000000005
   204   1      7.8400000000000043      21.560000000000002      21.560000000000002
   205   1      9.8000000000000025      19.600000000000005      21.560000000000002
   206   1      9.8000000000000025      21.560000000000002      19.600000000000005
   207   1      7.8400000000000043      19.600000000000005      23.520000000000003
   208   1      7.8400000000000043      21.560000000000002                   25.48
   209   1      9.8000000000000025      19.600000000000005                   25.48
   210   1      9.8000000000000025      21.560000000000002      23.520000000000003
   211   1      7.8400000000000043      19.600000000000005      27.440000000000001
   212   1      7.8400000000000043      21.560000000000002      29.400000000000006
   213   1      9.8000000000000025      19.600000000000005      29.400000000000006
   214   1      9.8000000000000025      21.560000000000002      27.440000000000001
   215   1      7.8400000000000043      19.600000000000005      31.360000000000007
   216   1      7.8400000000000043      21.560000000000002                   33.32
   217   1      9.8000000000000025      19.600000000000005                   33.32
   218   1      9.8000000000000025      21.560000000000002      31.360000000000007
   219   1      7.8400000000000043      19.600000000000005      35.280000000000001
   220   1      9.8000000000000025      19.600000000000005      37.240000000000009
   221   1      9.8000000000000025      21.560000000000002      35.280000000000001
   222   1      9.8000000000000025      23.520000000000003      9.8000000000000025
   223   1      7.8400000000000043      23.520000000000003      11.760000000000003
   224   1      7.8400000000000043                   25.48      13.720000000000004
   225   1      9.8000000000000025      23.520000000000003      13.720000000000004
   226   1      9.8000000000000025                   25.48      11.760000000000003
   227   1      7.8400000000000043      23.520000000000003      15.680000000000005
   228   1      7.8400000000000043                   25.48      17.640000000000008
   229   1      9.8000000000000025      23.520000000000003      17.640000000000008
   230   1      9.8000000000000025                   25.48      15.680000000000005
   231   1      7.8400000000000043      23.520000000000003      19.600000000000005
   232   1      7.8400000000000043                   25.48      21.560000000000002
   233   1      9.8000000000000025      23.520000000000003      21.560000000000002
   234   1      9.8000000000000025                   25.48      19.600000000000005
   235   1      7.8400000000000043      23.520000000000003      23.520000000000003
   236   1      7.8400000000000043                   25.48                   25.48
   237   1      9.8000000000000025      23.520000000000003                   25.48
   238   1      9.8000000000000025                   25.48      23.520000000000003
   239   1      7.8400000000000043      23.520000000000003      27.440000000000001
   240   1      7.8400000000000043                   25.48      29.400000000000006
   241   1      9.8000000000000025      23.520000000000003      29.400000000000006
   242   1      9.8000000000000025                   25.48      27.440000000000001
   243   1      7.8400000000000043      23.520000000000003      31.360000000000007
   244   1      7.8400000000000043                   25.48                   33.32
   245   1      9.8000000000000025      23.520000000000003                   33.32
   246   1      9.8000000000000025                   25.48      31.360000000000007
   247   1      7.8400000000000043      23.520000000000003      35.280000000000001
   248   1      9.8000000000000025      23.520000000000003      37.240000000000009
   249   1      9.8000000000000025                   25.48      35.280000000000001
   250   1      9.8000000000000025      27.440000000000001      9.8000000000000025
   251   1      7.8400000000000043      27.440000000000001      11.760000000000003
   252   1      7.8400000000000043      29.400000000000006      13.720000000000004
   253   1      9.8000000000000025      27.440000000000001      13.720000000000004
   254   1      9.8000000000000025      29.400000000000006      11.760000000000003
   255   1      7.8400000000000043      27.440000000000001      15.680000000000005
   256   1      7.8400000000000043      29.400000000000006      17.640000000000008
   257   1      9.8000000000000025      27.440000000000001      17.640000000000008
   258   1      9.8000000000000025      29.400000000000006      15.680000000000005
   259   1      7.8400000000000043      27.440000000000001      19.600000000000005
   260   1      7.8400000000000043      29.400000000000006      21.560000000000002
   261   1      9.8000000000000025      27.440000000000001      21.560000000000002
   262   1      9.8000000000000025      29.400000000000006      19.600000000000005
   263   1      7.8400000000000043      27.440000000000001      23.520000000000003
   264   1      7.8400000000000043      29.400000000000006                   25.48
   265   1      9.8000000000000025      27.440000000000001                   25.48
   266   1      9.8000000000000025      29.400000000000006      23.520000000000003
   267   1      7.8400000000000043      27.440000000000001      27.440000000000001
   268   1      7.8400000000000043      29.400000000000006      29.400000000000006
   269   1      9.8000000000000025      27.440000000000001      29.400000000000006
   270   1      9.8000000000000025      29.400000000000006      27.440000000000001
   271   1      7.8400000000000043      27.440000000000001      31.360000000000007
   272   1      7.8400000000000043      29.400000000000006                   33.32
   273   1      9.8000000000000025      27.440000000000001                   33.32
   274   1      9.8000000000000025      29.400000000000006      31.360000000000007
   275   1      7.8400000000000043      27.440000000000001      35.280000000000001
   276   1      9.8000000000000025      27.440000000000001      37.240000000000009
   277   1      9.8000000000000025      29.400000000000006      35.280000000000001
   278   1      9.8000000000000025      31.360000000000007      9.8000000000000025
   279   1      7.8400000000000043      31.360000000000007      11.760000000000003
   280   1      7.8400000000000043                   33.32      13.720000000000004
   281   1      9.8000000000000025      31.360000000000007      13.720000000000004
   282   1      9.8000000000000025                   33.32      11.760000000000003
   283   1      7.8400000000000043      31.360000000000007      15.680000000000005
   284   1      7.8400000000000043                   33.32      17.640000000000008
   285   1      9.8000000000000025      31.360000000000007      17.640000000000008
   286   1      9.8000000000000025                   33.32      15.680000000000005
   287   1      7.8400000000000043      31.360000000000007      19.600000000000005
   288   1      7.8400000000000043                   33.32      21.560000000000002
   289   1      9.8000000000000025      31.360000000000007      21.560000000000002
   290   1      9.8000000000000025                   33.32      19.600000000000005
   291   1      7.8400000000000043      31.360000000000007      23.520000000000003
   292   1      7.8400000000000043                   33.32                   25.48
   293   1      9.8000000000000025      31.360000000000007                   25.48
   294   1      9.8000000000000025                   33.32      23.520000000000003
   295   1      7.8400000000000043      31.360000000000007      27.440000000000001
   296   1      7.8400000000000043                   33.32      29.400000000000006
   297   1      9.8000000000000025      31.360000000000007      29.400000000000006
   298   1      9.8000000000000025                   33.32      27.440000000000001
   299   1      7.8400000000000043      31.360000000000007      31.360000000000007
   300   1      7.8400000000000043                   33.32                   33.32
   301   1      9.8000000000000025      31.360000000000007                   33.32
   302   1      9.8000000000000025                   33.32      31.360000000000007
   303   1      7.8400000000000043      31.360000000000007      35.280000000000001
   304   1      9.8000000000000025      31.360000000000007      37.240000000000009
   305   1      9.8000000000000025                   33.32      35.280000000000001
   306   1      9.8000000000000025      35.280000000000001      9.8000000000000025
   307   1      7.8400000000000043      35.280000000000001      11.760000000000003
   308   1      9.8000000000000025      35.280000000000001      13.720000000000004
   309   1      9.8000000000000025      37.240000000000009      11.760000000000003
   310   1      7.8400000000000043      35.280000000000001      15.680000000000005
   311   1      9.8000000000000025      35.280000000000001      17.640000000000008
   312   1      9.8000000000000025      37.240000000000009      15.680000000000005
   313   1      7.8400000000000043      35.280000000000001      19.600000000000005
   314   1      9.8000000000000025      35.280000000000001      21.560000000000002
   315   1      9.8000000000000025      37.240000000000009      19.600000000000005
   316   1      7.8400000000000043      35.280000000000001      23.520000000000003
   317   1      9.8000000000000025      35.280000000000001                   25.48
   318   1      9.8000000000000025      37.240000000000009      23.520000000000003
   319   1      7.8400000000000043      35.280000000000001      27.440000000000001
   320   1      9.8000000000000025      35.280000000000001      29.400000000000006
   321   1      9.8000000000000025      37.240000000000009      27.440000000000001
   322   1      7.8400000000000043      35.280000000000001      31.360000000000007
   323   1      9.8000000000000025      35.280000000000001                   33.32
   324   1      9.8000000000000025      37.240000000000009      31.360000000000007
   325   1      7.8400000000000043      35.280000000000001      35.280000000000001
   326   1      9.8000000000000025      35.280000000000001      37.240000000000009
   327   1      9.8000000000000025      37.240000000000009      35.280000000000001
   328   1      13.720000000000004      5.8800000000000061      15.680000000000005
   329   1      13.720000000000004      5.8800000000000061      19.600000000000005
   330   1      13.720000000000004      5.8800000000000061      23.520000000000003
   331   1      13.720000000000004      5.8800000000000061      27.440000000000001
   332   1      13.720000000000004      5.8800000000000061      31.360000000000007
   333   1      11.760000000000003      9.8000000000000025      9.8000000000000025
   334   1      11.760000000000003      7.8400000000000043      11.760000000000003
   335   1      11.760000000000003      9.8000000000000025      13.720000000000004
   336   1      13.720000000000004      7.8400000000000043      13.720000000000004
   337   1      13.720000000000004      9.8000000000000025      11.760000000000003
   338   1      11.760000000000003      7.8400000000000043      15.680000000000005
   339   1      11.760000000000003      9.8000000000000025      17.640000000000008
   340   1      13.720000000000004      7.8400000000000043      17.640000000000008
   341   1      13.720000000000004      9.8000000000000025      15.680000000000005
   342   1      11.760000000000003      7.8400000000000043      19.600000000000005
   343   1      11.760000000000003      9.8000000000000025      21.560000000000002
   344   1      13.720000000000004      7.8400000000000043      21.560000000000002
   345   1      13.720000000000004      9.8000000000000025      19.600000000000005
   346   1      11.760000000000003      7.8400000000000043      23.520000000000003
   347   1      11.760000000000003      9.8000000000000025                   25.48
   348   1      13.720000000000004      7.8400000000000043                   25.48
   349   1      13.720000000000004      9.8000000000000025      23.520000000000003
   350   1      11.760000000000003      7.8400000000000043      27.440000000000001
   351   1      11.760000000000003      9.8000000000000025      29.400000000000006
   352   1      13.720000000000004      7.8400000000000043      29.400000000000006
   353   1      13.720000000000004      9.8000000000000025      27.440000000000001
   354   1      11.760000000000003      7.8400000000000043      31.360000000000007
   355   1      11.760000000000003      9.8000000000000025                   33.32
   356   1      13.720000000000004      7.8400000000000043                   33.32
   357   1      13.720000000000004      9.8000000000000025      31.360000000000007
   358   1      11.760000000000003      7.8400000000000043      35.280000000000001