model_files/Au/Au_30000/Au_421/data.Au_421_fcc_30423 (written by ASE) 

30423 	 atoms 
1  atom types
0.0                     106  xlo xhi
0.0                     106  ylo yhi
0.0                     106  zlo zhi


Atoms 

     1   1      2.0399999999999849      46.919999999999987      48.959999999999987
     2   1      2.0399999999999849      46.919999999999987      53.039999999999992
     3   1      2.0399999999999849      46.919999999999987       57.11999999999999
     4   1      2.0399999999999849      48.959999999999987      46.919999999999987
     5   1      105.99999999999999      50.999999999999986      50.999999999999986
     6   1      2.0399999999999849      48.959999999999987      50.999999999999986
     7   1      2.0399999999999849      50.999999999999986      48.959999999999987
     8   1      105.99999999999999      48.959999999999987      53.039999999999992
     9   1      105.99999999999999      50.999999999999986      55.079999999999984
    10   1      2.0399999999999849      48.959999999999987      55.079999999999984
    11   1      2.0399999999999849      50.999999999999986      53.039999999999992
    12   1      2.0399999999999849      48.959999999999987      59.159999999999982
    13   1      2.0399999999999849      50.999999999999986       57.11999999999999
    14   1      2.0399999999999849      53.039999999999992      46.919999999999987
    15   1      105.99999999999999      53.039999999999992      48.959999999999987
    16   1      105.99999999999999      55.079999999999984      50.999999999999986
    17   1      2.0399999999999849      53.039999999999992      50.999999999999986
    18   1      2.0399999999999849      55.079999999999984      48.959999999999987
    19   1      105.99999999999999      53.039999999999992      53.039999999999992
    20   1      105.99999999999999      55.079999999999984      55.079999999999984
    21   1      2.0399999999999849      53.039999999999992      55.079999999999984
    22   1      2.0399999999999849      55.079999999999984      53.039999999999992
    23   1      105.99999999999999      53.039999999999992       57.11999999999999
    24   1      2.0399999999999849      53.039999999999992      59.159999999999982
    25   1      2.0399999999999849      55.079999999999984       57.11999999999999
    26   1      2.0399999999999849       57.11999999999999      46.919999999999987
    27   1      2.0399999999999849       57.11999999999999      50.999999999999986
    28   1      2.0399999999999849      59.159999999999982      48.959999999999987
    29   1      105.99999999999999       57.11999999999999      53.039999999999992
    30   1      2.0399999999999849       57.11999999999999      55.079999999999984
    31   1      2.0399999999999849      59.159999999999982      53.039999999999992
    32   1      2.0399999999999849       57.11999999999999      59.159999999999982
    33   1      2.0399999999999849      59.159999999999982       57.11999999999999
    34   1      6.1199999999999903      38.759999999999984      48.959999999999987
    35   1      6.1199999999999903      38.759999999999984      53.039999999999992
    36   1      6.1199999999999903      38.759999999999984       57.11999999999999
    37   1      6.1199999999999903       40.79999999999999      46.919999999999987
    38   1      6.1199999999999903      42.839999999999989      44.879999999999988
    39   1      4.0799999999999841      42.839999999999989      50.999999999999986
    40   1      6.1199999999999903       40.79999999999999      50.999999999999986
    41   1      6.1199999999999903      42.839999999999989      48.959999999999987
    42   1      4.0799999999999841       40.79999999999999      53.039999999999992
    43   1      4.0799999999999841      42.839999999999989      55.079999999999984
    44   1      6.1199999999999903       40.79999999999999      55.079999999999984
    45   1      6.1199999999999903      42.839999999999989      53.039999999999992
    46   1      6.1199999999999903       40.79999999999999      59.159999999999982
    47   1      6.1199999999999903      42.839999999999989       57.11999999999999
    48   1      6.1199999999999903      42.839999999999989      61.199999999999989
    49   1      6.1199999999999903      44.879999999999988      42.839999999999989
    50   1      6.1199999999999903      46.919999999999987       40.79999999999999
    51   1      4.0799999999999841      44.879999999999988      44.879999999999988
    52   1      4.0799999999999841      46.919999999999987      46.919999999999987
    53   1      6.1199999999999903      44.879999999999988      46.919999999999987
    54   1      6.1199999999999903      46.919999999999987      44.879999999999988
    55   1      4.0799999999999841      44.879999999999988      48.959999999999987
    56   1      4.0799999999999841      46.919999999999987      50.999999999999986
    57   1      6.1199999999999903      44.879999999999988      50.999999999999986
    58   1      6.1199999999999903      46.919999999999987      48.959999999999987
    59   1      4.0799999999999841      44.879999999999988      53.039999999999992
    60   1      4.0799999999999841      46.919999999999987      55.079999999999984
    61   1      6.1199999999999903      44.879999999999988      55.079999999999984
    62   1      6.1199999999999903      46.919999999999987      53.039999999999992
    63   1      4.0799999999999841      44.879999999999988       57.11999999999999
    64   1      4.0799999999999841      46.919999999999987      59.159999999999982
    65   1      6.1199999999999903      44.879999999999988      59.159999999999982
    66   1      6.1199999999999903      46.919999999999987       57.11999999999999
    67   1      4.0799999999999841      44.879999999999988      61.199999999999989
    68   1      6.1199999999999903      44.879999999999988      63.239999999999988
    69   1      6.1199999999999903      46.919999999999987      61.199999999999989
    70   1      6.1199999999999903      46.919999999999987      65.279999999999987
    71   1      6.1199999999999903      48.959999999999987      38.759999999999984
    72   1      4.0799999999999841      50.999999999999986      42.839999999999989
    73   1      6.1199999999999903      48.959999999999987      42.839999999999989
    74   1      6.1199999999999903      50.999999999999986       40.79999999999999
    75   1      4.0799999999999841      48.959999999999987      44.879999999999988
    76   1      4.0799999999999841      50.999999999999986      46.919999999999987
    77   1      6.1199999999999903      48.959999999999987      46.919999999999987
    78   1      6.1199999999999903      50.999999999999986      44.879999999999988
    79   1      4.0799999999999841      48.959999999999987      48.959999999999987
    80   1      4.0799999999999841      50.999999999999986      50.999999999999986
    81   1      6.1199999999999903      48.959999999999987      50.999999999999986
    82   1      6.1199999999999903      50.999999999999986      48.959999999999987
    83   1      4.0799999999999841      48.959999999999987      53.039999999999992
    84   1      4.0799999999999841      50.999999999999986      55.079999999999984
    85   1      6.1199999999999903      48.959999999999987      55.079999999999984
    86   1      6.1199999999999903      50.999999999999986      53.039999999999992
    87   1      4.0799999999999841      48.959999999999987       57.11999999999999
    88   1      4.0799999999999841      50.999999999999986      59.159999999999982
    89   1      6.1199999999999903      48.959999999999987      59.159999999999982
    90   1      6.1199999999999903      50.999999999999986       57.11999999999999
    91   1      4.0799999999999841      48.959999999999987      61.199999999999989
    92   1      4.0799999999999841      50.999999999999986      63.239999999999988
    93   1      6.1199999999999903      48.959999999999987      63.239999999999988
    94   1      6.1199999999999903      50.999999999999986      61.199999999999989
    95   1      6.1199999999999903      48.959999999999987      67.319999999999993
    96   1      6.1199999999999903      50.999999999999986      65.279999999999987
    97   1      6.1199999999999903      53.039999999999992      38.759999999999984
    98   1      4.0799999999999841      53.039999999999992       40.79999999999999
    99   1      4.0799999999999841      55.079999999999984      42.839999999999989
   100   1      6.1199999999999903      53.039999999999992      42.839999999999989
   101   1      6.1199999999999903      55.079999999999984       40.79999999999999
   102   1      4.0799999999999841      53.039999999999992      44.879999999999988
   103   1      4.0799999999999841      55.079999999999984      46.919999999999987
   104   1      6.1199999999999903      53.039999999999992      46.919999999999987
   105   1      6.1199999999999903      55.079999999999984      44.879999999999988
   106   1      4.0799999999999841      53.039999999999992      48.959999999999987
   107   1      4.0799999999999841      55.079999999999984      50.999999999999986
   108   1      6.1199999999999903      53.039999999999992      50.999999999999986
   109   1      6.1199999999999903      55.079999999999984      48.959999999999987
   110   1      4.0799999999999841      53.039999999999992      53.039999999999992
   111   1      4.0799999999999841      55.079999999999984      55.079999999999984
   112   1      6.1199999999999903      53.039999999999992      55.079999999999984
   113   1      6.1199999999999903      55.079999999999984      53.039999999999992
   114   1      4.0799999999999841      53.039999999999992       57.11999999999999
   115   1      4.0799999999999841      55.079999999999984      59.159999999999982
   116   1      6.1199999999999903      53.039999999999992      59.159999999999982
   117   1      6.1199999999999903      55.079999999999984       57.11999999999999
   118   1      4.0799999999999841      53.039999999999992      61.199999999999989
   119   1      4.0799999999999841      55.079999999999984      63.239999999999988
   120   1      6.1199999999999903      53.039999999999992      63.239999999999988
   121   1      6.1199999999999903      55.079999999999984      61.199999999999989
   122   1      4.0799999999999841      53.039999999999992      65.279999999999987
   123   1      6.1199999999999903      53.039999999999992      67.319999999999993
   124   1      6.1199999999999903      55.079999999999984      65.279999999999987
   125   1      6.1199999999999903       57.11999999999999      38.759999999999984
   126   1      6.1199999999999903       57.11999999999999      42.839999999999989
   127   1      6.1199999999999903      59.159999999999982       40.79999999999999
   128   1      4.0799999999999841       57.11999999999999      44.879999999999988
   129   1      4.0799999999999841      59.159999999999982      46.919999999999987
   130   1      6.1199999999999903       57.11999999999999      46.919999999999987
   131   1      6.1199999999999903      59.159999999999982      44.879999999999988
   132   1      4.0799999999999841       57.11999999999999      48.959999999999987
   133   1      4.0799999999999841      59.159999999999982      50.999999999999986
   134   1      6.1199999999999903       57.11999999999999      50.999999999999986
   135   1      6.1199999999999903      59.159999999999982      48.959999999999987
   136   1      4.0799999999999841       57.11999999999999      53.039999999999992
   137   1      4.0799999999999841      59.159999999999982      55.079999999999984
   138   1      6.1199999999999903       57.11999999999999      55.079999999999984
   139   1      6.1199999999999903      59.159999999999982      53.039999999999992
   140   1      4.0799999999999841       57.11999999999999       57.11999999999999
   141   1      4.0799999999999841      59.159999999999982      59.159999999999982
   142   1      6.1199999999999903       57.11999999999999      59.159999999999982
   143   1      6.1199999999999903      59.159999999999982       57.11999999999999
   144   1      4.0799999999999841       57.11999999999999      61.199999999999989
   145   1      6.1199999999999903       57.11999999999999      63.239999999999988
   146   1      6.1199999999999903      59.159999999999982      61.199999999999989
   147   1      6.1199999999999903       57.11999999999999      67.319999999999993
   148   1      6.1199999999999903      59.159999999999982      65.279999999999987
   149   1      6.1199999999999903      61.199999999999989      42.839999999999989
   150   1      4.0799999999999841      61.199999999999989      44.879999999999988
   151   1      6.1199999999999903      61.199999999999989      46.919999999999987
   152   1      6.1199999999999903      63.239999999999988      44.879999999999988
   153   1      4.0799999999999841      61.199999999999989      48.959999999999987
   154   1      4.0799999999999841      63.239999999999988      50.999999999999986
   155   1      6.1199999999999903      61.199999999999989      50.999999999999986
   156   1      6.1199999999999903      63.239999999999988      48.959999999999987
   157   1      4.0799999999999841      61.199999999999989      53.039999999999992
   158   1      4.0799999999999841      63.239999999999988      55.079999999999984
   159   1      6.1199999999999903      61.199999999999989      55.079999999999984
   160   1      6.1199999999999903      63.239999999999988      53.039999999999992
   161   1      4.0799999999999841      61.199999999999989       57.11999999999999
   162   1      6.1199999999999903      61.199999999999989      59.159999999999982
   163   1      6.1199999999999903      63.239999999999988       57.11999999999999
   164   1      4.0799999999999841      61.199999999999989      61.199999999999989
   165   1      6.1199999999999903      61.199999999999989      63.239999999999988
   166   1      6.1199999999999903      63.239999999999988      61.199999999999989
   167   1      6.1199999999999903      65.279999999999987      46.919999999999987
   168   1      6.1199999999999903      65.279999999999987      50.999999999999986
   169   1      6.1199999999999903      67.319999999999993      48.959999999999987
   170   1      4.0799999999999841      65.279999999999987      53.039999999999992
   171   1      6.1199999999999903      65.279999999999987      55.079999999999984
   172   1      6.1199999999999903      67.319999999999993      53.039999999999992
   173   1      6.1199999999999903      65.279999999999987      59.159999999999982
   174   1      6.1199999999999903      67.319999999999993       57.11999999999999
   175   1      10.199999999999989      30.599999999999987      48.959999999999987
   176   1      10.199999999999989      30.599999999999987      53.039999999999992
   177   1      10.199999999999989      30.599999999999987       57.11999999999999
   178   1      10.199999999999989      34.679999999999986       40.79999999999999
   179   1      10.199999999999989      32.639999999999986      46.919999999999987
   180   1      10.199999999999989      34.679999999999986      44.879999999999988
   181   1      8.1599999999999895      34.679999999999986      50.999999999999986
   182   1      10.199999999999989      32.639999999999986      50.999999999999986
   183   1      10.199999999999989      34.679999999999986      48.959999999999987
   184   1      8.1599999999999895      32.639999999999986      53.039999999999992
   185   1      8.1599999999999895      34.679999999999986      55.079999999999984
   186   1      10.199999999999989      32.639999999999986      55.079999999999984
   187   1      10.199999999999989      34.679999999999986      53.039999999999992
   188   1      10.199999999999989      32.639999999999986      59.159999999999982
   189   1      10.199999999999989      34.679999999999986       57.11999999999999
   190   1      10.199999999999989      34.679999999999986      61.199999999999989
   191   1      10.199999999999989      34.679999999999986      65.279999999999987
   192   1      10.199999999999989      36.719999999999985      38.759999999999984
   193   1      10.199999999999989      38.759999999999984      36.719999999999985
   194   1      8.1599999999999895      38.759999999999984      42.839999999999989
   195   1      10.199999999999989      36.719999999999985      42.839999999999989
   196   1      10.199999999999989      38.759999999999984       40.79999999999999
   197   1      8.1599999999999895      36.719999999999985      44.879999999999988
   198   1      8.1599999999999895      38.759999999999984      46.919999999999987
   199   1      10.199999999999989      36.719999999999985      46.919999999999987
   200   1      10.199999999999989      38.759999999999984      44.879999999999988
   201   1      8.1599999999999895      36.719999999999985      48.959999999999987
   202   1      8.1599999999999895      38.759999999999984      50.999999999999986
   203   1      10.199999999999989      36.719999999999985      50.999999999999986
   204   1      10.199999999999989      38.759999999999984      48.959999999999987
   205   1      8.1599999999999895      36.719999999999985      53.039999999999992
   206   1      8.1599999999999895      38.759999999999984      55.079999999999984
   207   1      10.199999999999989      36.719999999999985      55.079999999999984
   208   1      10.199999999999989      38.759999999999984      53.039999999999992
   209   1      8.1599999999999895      36.719999999999985       57.11999999999999
   210   1      8.1599999999999895      38.759999999999984      59.159999999999982
   211   1      10.199999999999989      36.719999999999985      59.159999999999982
   212   1      10.199999999999989      38.759999999999984       57.11999999999999
   213   1      8.1599999999999895      36.719999999999985      61.199999999999989
   214   1      8.1599999999999895      38.759999999999984      63.239999999999988
   215   1      10.199999999999989      36.719999999999985      63.239999999999988
   216   1      10.199999999999989      38.759999999999984      61.199999999999989
   217   1      10.199999999999989      36.719999999999985      67.319999999999993
   218   1      10.199999999999989      38.759999999999984      65.279999999999987
   219   1      10.199999999999989      38.759999999999984      69.359999999999985
   220   1      10.199999999999989       40.79999999999999      34.679999999999986
   221   1      8.1599999999999895      42.839999999999989      38.759999999999984
   222   1      10.199999999999989       40.79999999999999      38.759999999999984
   223   1      10.199999999999989      42.839999999999989      36.719999999999985
   224   1      8.1599999999999895       40.79999999999999       40.79999999999999
   225   1      8.1599999999999895      42.839999999999989      42.839999999999989
   226   1      10.199999999999989       40.79999999999999      42.839999999999989
   227   1      10.199999999999989      42.839999999999989       40.79999999999999
   228   1      8.1599999999999895       40.79999999999999      44.879999999999988
   229   1      8.1599999999999895      42.839999999999989      46.919999999999987
   230   1      10.199999999999989       40.79999999999999      46.919999999999987
   231   1      10.199999999999989      42.839999999999989      44.879999999999988
   232   1      8.1599999999999895       40.79999999999999      48.959999999999987
   233   1      8.1599999999999895      42.839999999999989      50.999999999999986
   234   1      10.199999999999989       40.79999999999999      50.999999999999986
   235   1      10.199999999999989      42.839999999999989      48.959999999999987
   236   1      8.1599999999999895       40.79999999999999      53.039999999999992
   237   1      8.1599999999999895      42.839999999999989      55.079999999999984
   238   1      10.199999999999989       40.79999999999999      55.079999999999984
   239   1      10.199999999999989      42.839999999999989      53.039999999999992
   240   1      8.1599999999999895       40.79999999999999       57.11999999999999
   241   1      8.1599999999999895      42.839999999999989      59.159999999999982
   242   1      10.199999999999989       40.79999999999999      59.159999999999982
   243   1      10.199999999999989      42.839999999999989       57.11999999999999
   244   1      8.1599999999999895       40.79999999999999      61.199999999999989
   245   1      8.1599999999999895      42.839999999999989      63.239999999999988
   246   1      10.199999999999989       40.79999999999999      63.239999999999988
   247   1      10.199999999999989      42.839999999999989      61.199999999999989
   248   1      8.1599999999999895       40.79999999999999      65.279999999999987
   249   1      8.1599999999999895      42.839999999999989      67.319999999999993
   250   1      10.199999999999989       40.79999999999999      67.319999999999993
   251   1      10.199999999999989      42.839999999999989      65.279999999999987
   252   1      10.199999999999989       40.79999999999999      71.399999999999977
   253   1      10.199999999999989      42.839999999999989      69.359999999999985
   254   1      10.199999999999989      44.879999999999988      34.679999999999986
   255   1      10.199999999999989      46.919999999999987      32.639999999999986
   256   1      8.1599999999999895      44.879999999999988      36.719999999999985
   257   1      8.1599999999999895      46.919999999999987      38.759999999999984
   258   1      10.199999999999989      44.879999999999988      38.759999999999984
   259   1      10.199999999999989      46.919999999999987      36.719999999999985
   260   1      8.1599999999999895      44.879999999999988       40.79999999999999
   261   1      8.1599999999999895      46.919999999999987      42.839999999999989
   262   1      10.199999999999989      44.879999999999988      42.839999999999989
   263   1      10.199999999999989      46.919999999999987       40.79999999999999
   264   1      8.1599999999999895      44.879999999999988      44.879999999999988
   265   1      8.1599999999999895      46.919999999999987      46.919999999999987
   266   1      10.199999999999989      44.879999999999988      46.919999999999987
   267   1      10.199999999999989      46.919999999999987      44.879999999999988
   268   1      8.1599999999999895      44.879999999999988      48.959999999999987
   269   1      8.1599999999999895      46.919999999999987      50.999999999999986
   270   1      10.199999999999989      44.879999999999988      50.999999999999986
   271   1      10.199999999999989      46.919999999999987      48.959999999999987
   272   1      8.1599999999999895      44.879999999999988      53.039999999999992
   273   1      8.1599999999999895      46.919999999999987      55.079999999999984
   274   1      10.199999999999989      44.879999999999988      55.079999999999984
   275   1      10.199999999999989      46.919999999999987      53.039999999999992
   276   1      8.1599999999999895      44.879999999999988       57.11999999999999
   277   1      8.1599999999999895      46.919999999999987      59.159999999999982
   278   1      10.199999999999989      44.879999999999988      59.159999999999982
   279   1      10.199999999999989      46.919999999999987       57.11999999999999
   280   1      8.1599999999999895      44.879999999999988      61.199999999999989
   281   1      8.1599999999999895      46.919999999999987      63.239999999999988
   282   1      10.199999999999989      44.879999999999988      63.239999999999988
   283   1      10.199999999999989      46.919999999999987      61.199999999999989
   284   1      8.1599999999999895      44.879999999999988      65.279999999999987
   285   1      8.1599999999999895      46.919999999999987      67.319999999999993
   286   1      10.199999999999989      44.879999999999988      67.319999999999993
   287   1      10.199999999999989      46.919999999999987      65.279999999999987
   288   1      8.1599999999999895      44.879999999999988      69.359999999999985
   289   1      10.199999999999989      44.879999999999988      71.399999999999977
   290   1      10.199999999999989      46.919999999999987      69.359999999999985
   291   1      10.199999999999989      46.919999999999987      73.439999999999984
   292   1      10.199999999999989      48.959999999999987      30.599999999999987
   293   1      8.1599999999999895      50.999999999999986      34.679999999999986
   294   1      10.199999999999989      48.959999999999987      34.679999999999986
   295   1      10.199999999999989      50.999999999999986      32.639999999999986
   296   1      8.1599999999999895      48.959999999999987      36.719999999999985
   297   1      8.1599999999999895      50.999999999999986      38.759999999999984
   298   1      10.199999999999989      48.959999999999987      38.759999999999984
   299   1      10.199999999999989      50.999999999999986      36.719999999999985
   300   1      8.1599999999999895      48.959999999999987       40.79999999999999
   301   1      8.1599999999999895      50.999999999999986      42.839999999999989
   302   1      10.199999999999989      48.959999999999987      42.839999999999989
   303   1      10.199999999999989      50.999999999999986       40.79999999999999
   304   1      8.1599999999999895      48.959999999999987      44.879999999999988
   305   1      8.1599999999999895      50.999999999999986      46.919999999999987
   306   1      10.199999999999989      48.959999999999987      46.919999999999987
   307   1      10.199999999999989      50.999999999999986      44.879999999999988
   308   1      8.1599999999999895      48.959999999999987      48.959999999999987
   309   1      8.1599999999999895      50.999999999999986      50.999999999999986
   310   1      10.199999999999989      48.959999999999987      50.999999999999986
   311   1      10.199999999999989      50.999999999999986      48.959999999999987
   312   1      8.1599999999999895      48.959999999999987      53.039999999999992
   313   1      8.1599999999999895      50.999999999999986      55.079999999999984
   314   1      10.199999999999989      48.959999999999987      55.079999999999984
   315   1      10.199999999999989      50.999999999999986      53.039999999999992
   316   1      8.1599999999999895      48.959999999999987       57.11999999999999
   317   1      8.1599999999999895      50.999999999999986      59.159999999999982
   318   1      10.199999999999989      48.959999999999987      59.159999999999982
   319   1      10.199999999999989      50.999999999999986       57.11999999999999
   320   1      8.1599999999999895      48.959999999999987      61.199999999999989
   321   1      8.1599999999999895      50.999999999999986      63.239999999999988
   322   1      10.199999999999989      48.959999999999987      63.239999999999988
   323   1      10.199999999999989      50.999999999999986      61.199999999999989
   324   1      8.1599999999999895      48.959999999999987      65.279999999999987
   325   1      8.1599999999999895      50.999999999999986      67.319999999999993
   326   1      10.199999999999989      48.959999999999987      67.319999999999993
   327   1      10.199999999999989      50.999999999999986      65.279999999999987
   328   1      8.1599999999999895      48.959999999999987      69.359999999999985
   329   1      8.1599999999999895      50.999999999999986      71.399999999999977
   330   1      10.199999999999989      48.959999999999987      71.399999999999977
   331   1      10.199999999999989      50.999999999999986      69.359999999999985
   332   1      10.199999999999989      48.959999999999987       75.47999999999999
   333   1      10.199999999999989      50.999999999999986      73.439999999999984
   334   1      10.199999999999989      53.039999999999992      30.599999999999987
   335   1      8.1599999999999895      53.039999999999992      32.639999999999986
   336   1      8.1599999999999895      55.079999999999984      34.679999999999986
   337   1      10.199999999999989      53.039999999999992      34.679999999999986
   338   1      10.199999999999989      55.079999999999984      32.639999999999986
   339   1      8.1599999999999895      53.039999999999992      36.719999999999985
   340   1      8.1599999999999895      55.079999999999984      38.759999999999984
   341   1      10.199999999999989      53.039999999999992      38.759999999999984
   342   1      10.199999999999989      55.079999999999984      36.719999999999985
   343   1      8.1599999999999895      53.039999999999992       40.79999999999999
   344   1      8.1599999999999895      55.079999999999984      42.839999999999989
   345   1      10.199999999999989      53.039999999999992      42.839999999999989
   346   1      10.199999999999989      55.079999999999984       40.79999999999999
   347   1      8.1599999999999895      53.039999999999992      44.879999999999988
   348   1      8.1599999999999895      55.079999999999984      46.919999999999987
   349   1      10.199999999999989      53.039999999999992      46.919999999999987
   350   1      10.199999999999989      55.079999999999984      44.879999999999988
   351   1      8.1599999999999895      53.039999999999992      48.959999999999987
   352   1      8.1599999999999895      55.079999999999984      50.999999999999986
   353   1      10.199999999999989      53.039999999999992      50.999999999999986
   354   1      10.199999999999989      55.079999999999984      48.959999999999987
   355   1      8.1599999999999895      53.039999999999992      53.039999999999992
   356   1      8.1599999999999895      55.079999999999984      55.079999999999984
   357   1      10.199999999999989      53.039999999999992      55.079999999999984
   358   1      10.199999999999989      55.079999999999984      53.039999999999992