model_files/Fe/Fe_30000/Fe_110/data.Fe_110_fcc_29679 (written by ASE) 

29679 	 atoms 
1  atom types
0.0                     111  xlo xhi
0.0                     111  ylo yhi
0.0                     111  zlo zhi


Atoms 

     1   1      1.4350000000000094      53.095000000000006      53.095000000000006
     2   1      1.4350000000000094      53.095000000000006      55.965000000000003
     3   1      1.4350000000000094      55.965000000000003      53.095000000000006
     4   1  7.1054273576010019e-15      54.530000000000001      54.530000000000001
     5   1      1.4350000000000094      55.965000000000003      55.965000000000003
     6   1      4.3050000000000068      50.225000000000009      50.225000000000009
     7   1      4.3050000000000068      50.225000000000009      53.095000000000006
     8   1      4.3050000000000068      50.225000000000009      55.965000000000003
     9   1      4.3050000000000068      50.225000000000009      58.835000000000008
    10   1      4.3050000000000068      53.095000000000006      50.225000000000009
    11   1      2.8700000000000117      51.660000000000004      51.660000000000004
    12   1      4.3050000000000068      53.095000000000006      53.095000000000006
    13   1      2.8700000000000117      51.660000000000004      54.530000000000001
    14   1      4.3050000000000068      53.095000000000006      55.965000000000003
    15   1      2.8700000000000117      51.660000000000004      57.400000000000006
    16   1      4.3050000000000068      53.095000000000006      58.835000000000008
    17   1      4.3050000000000068      55.965000000000003      50.225000000000009
    18   1      2.8700000000000117      54.530000000000001      51.660000000000004
    19   1      4.3050000000000068      55.965000000000003      53.095000000000006
    20   1      2.8700000000000117      54.530000000000001      54.530000000000001
    21   1      4.3050000000000068      55.965000000000003      55.965000000000003
    22   1      2.8700000000000117      54.530000000000001      57.400000000000006
    23   1      4.3050000000000068      55.965000000000003      58.835000000000008
    24   1      4.3050000000000068      58.835000000000008      50.225000000000009
    25   1      2.8700000000000117      57.400000000000006      51.660000000000004
    26   1      4.3050000000000068      58.835000000000008      53.095000000000006
    27   1      2.8700000000000117      57.400000000000006      54.530000000000001
    28   1      4.3050000000000068      58.835000000000008      55.965000000000003
    29   1      2.8700000000000117      57.400000000000006      57.400000000000006
    30   1      4.3050000000000068      58.835000000000008      58.835000000000008
    31   1      7.1750000000000114      47.355000000000004      47.355000000000004
    32   1      7.1750000000000114      47.355000000000004      50.225000000000009
    33   1      7.1750000000000114      47.355000000000004      53.095000000000006
    34   1      7.1750000000000114      47.355000000000004      55.965000000000003
    35   1      7.1750000000000114      47.355000000000004      58.835000000000008
    36   1      7.1750000000000114      47.355000000000004      61.704999999999991
    37   1      7.1750000000000114      50.225000000000009      47.355000000000004
    38   1      5.7400000000000091      48.790000000000006      48.790000000000006
    39   1      7.1750000000000114      50.225000000000009      50.225000000000009
    40   1      5.7400000000000091      48.790000000000006      51.660000000000004
    41   1      7.1750000000000114      50.225000000000009      53.095000000000006
    42   1      5.7400000000000091      48.790000000000006      54.530000000000001
    43   1      7.1750000000000114      50.225000000000009      55.965000000000003
    44   1      5.7400000000000091      48.790000000000006      57.400000000000006
    45   1      7.1750000000000114      50.225000000000009      58.835000000000008
    46   1      5.7400000000000091      48.790000000000006      60.270000000000003
    47   1      7.1750000000000114      50.225000000000009      61.704999999999991
    48   1      7.1750000000000114      53.095000000000006      47.355000000000004
    49   1      5.7400000000000091      51.660000000000004      48.790000000000006
    50   1      7.1750000000000114      53.095000000000006      50.225000000000009
    51   1      5.7400000000000091      51.660000000000004      51.660000000000004
    52   1      7.1750000000000114      53.095000000000006      53.095000000000006
    53   1      5.7400000000000091      51.660000000000004      54.530000000000001
    54   1      7.1750000000000114      53.095000000000006      55.965000000000003
    55   1      5.7400000000000091      51.660000000000004      57.400000000000006
    56   1      7.1750000000000114      53.095000000000006      58.835000000000008
    57   1      5.7400000000000091      51.660000000000004      60.270000000000003
    58   1      7.1750000000000114      53.095000000000006      61.704999999999991
    59   1      7.1750000000000114      55.965000000000003      47.355000000000004
    60   1      5.7400000000000091      54.530000000000001      48.790000000000006
    61   1      7.1750000000000114      55.965000000000003      50.225000000000009
    62   1      5.7400000000000091      54.530000000000001      51.660000000000004
    63   1      7.1750000000000114      55.965000000000003      53.095000000000006
    64   1      5.7400000000000091      54.530000000000001      54.530000000000001
    65   1      7.1750000000000114      55.965000000000003      55.965000000000003
    66   1      5.7400000000000091      54.530000000000001      57.400000000000006
    67   1      7.1750000000000114      55.965000000000003      58.835000000000008
    68   1      5.7400000000000091      54.530000000000001      60.270000000000003
    69   1      7.1750000000000114      55.965000000000003      61.704999999999991
    70   1      7.1750000000000114      58.835000000000008      47.355000000000004
    71   1      5.7400000000000091      57.400000000000006      48.790000000000006
    72   1      7.1750000000000114      58.835000000000008      50.225000000000009
    73   1      5.7400000000000091      57.400000000000006      51.660000000000004
    74   1      7.1750000000000114      58.835000000000008      53.095000000000006
    75   1      5.7400000000000091      57.400000000000006      54.530000000000001
    76   1      7.1750000000000114      58.835000000000008      55.965000000000003
    77   1      5.7400000000000091      57.400000000000006      57.400000000000006
    78   1      7.1750000000000114      58.835000000000008      58.835000000000008
    79   1      5.7400000000000091      57.400000000000006      60.270000000000003
    80   1      7.1750000000000114      58.835000000000008      61.704999999999991
    81   1      7.1750000000000114      61.704999999999991      47.355000000000004
    82   1      5.7400000000000091      60.270000000000003      48.790000000000006
    83   1      7.1750000000000114      61.704999999999991      50.225000000000009
    84   1      5.7400000000000091      60.270000000000003      51.660000000000004
    85   1      7.1750000000000114      61.704999999999991      53.095000000000006
    86   1      5.7400000000000091      60.270000000000003      54.530000000000001
    87   1      7.1750000000000114      61.704999999999991      55.965000000000003
    88   1      5.7400000000000091      60.270000000000003      57.400000000000006
    89   1      7.1750000000000114      61.704999999999991      58.835000000000008
    90   1      5.7400000000000091      60.270000000000003      60.270000000000003
    91   1      7.1750000000000114      61.704999999999991      61.704999999999991
    92   1      10.045000000000009      44.485000000000007      44.485000000000007
    93   1      10.045000000000009      44.485000000000007      47.355000000000004
    94   1      10.045000000000009      44.485000000000007      50.225000000000009
    95   1      10.045000000000009      44.485000000000007      53.095000000000006
    96   1      10.045000000000009      44.485000000000007      55.965000000000003
    97   1      10.045000000000009      44.485000000000007      58.835000000000008
    98   1      10.045000000000009      44.485000000000007      61.704999999999991
    99   1      10.045000000000009      44.485000000000007      64.575000000000003
   100   1      10.045000000000009      47.355000000000004      44.485000000000007
   101   1      8.6100000000000065      45.920000000000002      45.920000000000002
   102   1      10.045000000000009      47.355000000000004      47.355000000000004
   103   1      8.6100000000000065      45.920000000000002      48.790000000000006
   104   1      10.045000000000009      47.355000000000004      50.225000000000009
   105   1      8.6100000000000065      45.920000000000002      51.660000000000004
   106   1      10.045000000000009      47.355000000000004      53.095000000000006
   107   1      8.6100000000000065      45.920000000000002      54.530000000000001
   108   1      10.045000000000009      47.355000000000004      55.965000000000003
   109   1      8.6100000000000065      45.920000000000002      57.400000000000006
   110   1      10.045000000000009      47.355000000000004      58.835000000000008
   111   1      8.6100000000000065      45.920000000000002      60.270000000000003
   112   1      10.045000000000009      47.355000000000004      61.704999999999991
   113   1      8.6100000000000065      45.920000000000002      63.139999999999993
   114   1      10.045000000000009      47.355000000000004      64.575000000000003
   115   1      10.045000000000009      50.225000000000009      44.485000000000007
   116   1      8.6100000000000065      48.790000000000006      45.920000000000002
   117   1      10.045000000000009      50.225000000000009      47.355000000000004
   118   1      8.6100000000000065      48.790000000000006      48.790000000000006
   119   1      10.045000000000009      50.225000000000009      50.225000000000009
   120   1      8.6100000000000065      48.790000000000006      51.660000000000004
   121   1      10.045000000000009      50.225000000000009      53.095000000000006
   122   1      8.6100000000000065      48.790000000000006      54.530000000000001
   123   1      10.045000000000009      50.225000000000009      55.965000000000003
   124   1      8.6100000000000065      48.790000000000006      57.400000000000006
   125   1      10.045000000000009      50.225000000000009      58.835000000000008
   126   1      8.6100000000000065      48.790000000000006      60.270000000000003
   127   1      10.045000000000009      50.225000000000009      61.704999999999991
   128   1      8.6100000000000065      48.790000000000006      63.139999999999993
   129   1      10.045000000000009      50.225000000000009      64.575000000000003
   130   1      10.045000000000009      53.095000000000006      44.485000000000007
   131   1      8.6100000000000065      51.660000000000004      45.920000000000002
   132   1      10.045000000000009      53.095000000000006      47.355000000000004
   133   1      8.6100000000000065      51.660000000000004      48.790000000000006
   134   1      10.045000000000009      53.095000000000006      50.225000000000009
   135   1      8.6100000000000065      51.660000000000004      51.660000000000004
   136   1      10.045000000000009      53.095000000000006      53.095000000000006
   137   1      8.6100000000000065      51.660000000000004      54.530000000000001
   138   1      10.045000000000009      53.095000000000006      55.965000000000003
   139   1      8.6100000000000065      51.660000000000004      57.400000000000006
   140   1      10.045000000000009      53.095000000000006      58.835000000000008
   141   1      8.6100000000000065      51.660000000000004      60.270000000000003
   142   1      10.045000000000009      53.095000000000006      61.704999999999991
   143   1      8.6100000000000065      51.660000000000004      63.139999999999993
   144   1      10.045000000000009      53.095000000000006      64.575000000000003
   145   1      10.045000000000009      55.965000000000003      44.485000000000007
   146   1      8.6100000000000065      54.530000000000001      45.920000000000002
   147   1      10.045000000000009      55.965000000000003      47.355000000000004
   148   1      8.6100000000000065      54.530000000000001      48.790000000000006
   149   1      10.045000000000009      55.965000000000003      50.225000000000009
   150   1      8.6100000000000065      54.530000000000001      51.660000000000004
   151   1      10.045000000000009      55.965000000000003      53.095000000000006
   152   1      8.6100000000000065      54.530000000000001      54.530000000000001
   153   1      10.045000000000009      55.965000000000003      55.965000000000003
   154   1      8.6100000000000065      54.530000000000001      57.400000000000006
   155   1      10.045000000000009      55.965000000000003      58.835000000000008
   156   1      8.6100000000000065      54.530000000000001      60.270000000000003
   157   1      10.045000000000009      55.965000000000003      61.704999999999991
   158   1      8.6100000000000065      54.530000000000001      63.139999999999993
   159   1      10.045000000000009      55.965000000000003      64.575000000000003
   160   1      10.045000000000009      58.835000000000008      44.485000000000007
   161   1      8.6100000000000065      57.400000000000006      45.920000000000002
   162   1      10.045000000000009      58.835000000000008      47.355000000000004
   163   1      8.6100000000000065      57.400000000000006      48.790000000000006
   164   1      10.045000000000009      58.835000000000008      50.225000000000009
   165   1      8.6100000000000065      57.400000000000006      51.660000000000004
   166   1      10.045000000000009      58.835000000000008      53.095000000000006
   167   1      8.6100000000000065      57.400000000000006      54.530000000000001
   168   1      10.045000000000009      58.835000000000008      55.965000000000003
   169   1      8.6100000000000065      57.400000000000006      57.400000000000006
   170   1      10.045000000000009      58.835000000000008      58.835000000000008
   171   1      8.6100000000000065      57.400000000000006      60.270000000000003
   172   1      10.045000000000009      58.835000000000008      61.704999999999991
   173   1      8.6100000000000065      57.400000000000006      63.139999999999993
   174   1      10.045000000000009      58.835000000000008      64.575000000000003
   175   1      10.045000000000009      61.704999999999991      44.485000000000007
   176   1      8.6100000000000065      60.270000000000003      45.920000000000002
   177   1      10.045000000000009      61.704999999999991      47.355000000000004
   178   1      8.6100000000000065      60.270000000000003      48.790000000000006
   179   1      10.045000000000009      61.704999999999991      50.225000000000009
   180   1      8.6100000000000065      60.270000000000003      51.660000000000004
   181   1      10.045000000000009      61.704999999999991      53.095000000000006
   182   1      8.6100000000000065      60.270000000000003      54.530000000000001
   183   1      10.045000000000009      61.704999999999991      55.965000000000003
   184   1      8.6100000000000065      60.270000000000003      57.400000000000006
   185   1      10.045000000000009      61.704999999999991      58.835000000000008
   186   1      8.6100000000000065      60.270000000000003      60.270000000000003
   187   1      10.045000000000009      61.704999999999991      61.704999999999991
   188   1      8.6100000000000065      60.270000000000003      63.139999999999993
   189   1      10.045000000000009      61.704999999999991      64.575000000000003
   190   1      10.045000000000009      64.575000000000003      44.485000000000007
   191   1      8.6100000000000065      63.139999999999993      45.920000000000002
   192   1      10.045000000000009      64.575000000000003      47.355000000000004
   193   1      8.6100000000000065      63.139999999999993      48.790000000000006
   194   1      10.045000000000009      64.575000000000003      50.225000000000009
   195   1      8.6100000000000065      63.139999999999993      51.660000000000004
   196   1      10.045000000000009      64.575000000000003      53.095000000000006
   197   1      8.6100000000000065      63.139999999999993      54.530000000000001
   198   1      10.045000000000009      64.575000000000003      55.965000000000003
   199   1      8.6100000000000065      63.139999999999993      57.400000000000006
   200   1      10.045000000000009      64.575000000000003      58.835000000000008
   201   1      8.6100000000000065      63.139999999999993      60.270000000000003
   202   1      10.045000000000009      64.575000000000003      61.704999999999991
   203   1      8.6100000000000065      63.139999999999993      63.139999999999993
   204   1      10.045000000000009      64.575000000000003      64.575000000000003
   205   1      12.915000000000006      41.615000000000009      41.615000000000009
   206   1      12.915000000000006      41.615000000000009      44.485000000000007
   207   1      12.915000000000006      41.615000000000009      47.355000000000004
   208   1      12.915000000000006      41.615000000000009      50.225000000000009
   209   1      12.915000000000006      41.615000000000009      53.095000000000006
   210   1      12.915000000000006      41.615000000000009      55.965000000000003
   211   1      12.915000000000006      41.615000000000009      58.835000000000008
   212   1      12.915000000000006      41.615000000000009      61.704999999999991
   213   1      12.915000000000006      41.615000000000009      64.575000000000003
   214   1      12.915000000000006      41.615000000000009      67.445000000000007
   215   1      12.915000000000006      44.485000000000007      41.615000000000009
   216   1      11.480000000000004      43.050000000000004      43.050000000000004
   217   1      12.915000000000006      44.485000000000007      44.485000000000007
   218   1      11.480000000000004      43.050000000000004      45.920000000000002
   219   1      12.915000000000006      44.485000000000007      47.355000000000004
   220   1      11.480000000000004      43.050000000000004      48.790000000000006
   221   1      12.915000000000006      44.485000000000007      50.225000000000009
   222   1      11.480000000000004      43.050000000000004      51.660000000000004
   223   1      12.915000000000006      44.485000000000007      53.095000000000006
   224   1      11.480000000000004      43.050000000000004      54.530000000000001
   225   1      12.915000000000006      44.485000000000007      55.965000000000003
   226   1      11.480000000000004      43.050000000000004      57.400000000000006
   227   1      12.915000000000006      44.485000000000007      58.835000000000008
   228   1      11.480000000000004      43.050000000000004      60.270000000000003
   229   1      12.915000000000006      44.485000000000007      61.704999999999991
   230   1      11.480000000000004      43.050000000000004      63.139999999999993
   231   1      12.915000000000006      44.485000000000007      64.575000000000003
   232   1      11.480000000000004      43.050000000000004      66.010000000000005
   233   1      12.915000000000006      44.485000000000007      67.445000000000007
   234   1      12.915000000000006      47.355000000000004      41.615000000000009
   235   1      11.480000000000004      45.920000000000002      43.050000000000004
   236   1      12.915000000000006      47.355000000000004      44.485000000000007
   237   1      11.480000000000004      45.920000000000002      45.920000000000002
   238   1      12.915000000000006      47.355000000000004      47.355000000000004
   239   1      11.480000000000004      45.920000000000002      48.790000000000006
   240   1      12.915000000000006      47.355000000000004      50.225000000000009
   241   1      11.480000000000004      45.920000000000002      51.660000000000004
   242   1      12.915000000000006      47.355000000000004      53.095000000000006
   243   1      11.480000000000004      45.920000000000002      54.530000000000001
   244   1      12.915000000000006      47.355000000000004      55.965000000000003
   245   1      11.480000000000004      45.920000000000002      57.400000000000006
   246   1      12.915000000000006      47.355000000000004      58.835000000000008
   247   1      11.480000000000004      45.920000000000002      60.270000000000003
   248   1      12.915000000000006      47.355000000000004      61.704999999999991
   249   1      11.480000000000004      45.920000000000002      63.139999999999993
   250   1      12.915000000000006      47.355000000000004      64.575000000000003
   251   1      11.480000000000004      45.920000000000002      66.010000000000005
   252   1      12.915000000000006      47.355000000000004      67.445000000000007
   253   1      12.915000000000006      50.225000000000009      41.615000000000009
   254   1      11.480000000000004      48.790000000000006      43.050000000000004
   255   1      12.915000000000006      50.225000000000009      44.485000000000007
   256   1      11.480000000000004      48.790000000000006      45.920000000000002
   257   1      12.915000000000006      50.225000000000009      47.355000000000004
   258   1      11.480000000000004      48.790000000000006      48.790000000000006
   259   1      12.915000000000006      50.225000000000009      50.225000000000009
   260   1      11.480000000000004      48.790000000000006      51.660000000000004
   261   1      12.915000000000006      50.225000000000009      53.095000000000006
   262   1      11.480000000000004      48.790000000000006      54.530000000000001
   263   1      12.915000000000006      50.225000000000009      55.965000000000003
   264   1      11.480000000000004      48.790000000000006      57.400000000000006
   265   1      12.915000000000006      50.225000000000009      58.835000000000008
   266   1      11.480000000000004      48.790000000000006      60.270000000000003
   267   1      12.915000000000006      50.225000000000009      61.704999999999991
   268   1      11.480000000000004      48.790000000000006      63.139999999999993
   269   1      12.915000000000006      50.225000000000009      64.575000000000003
   270   1      11.480000000000004      48.790000000000006      66.010000000000005
   271   1      12.915000000000006      50.225000000000009      67.445000000000007
   272   1      12.915000000000006      53.095000000000006      41.615000000000009
   273   1      11.480000000000004      51.660000000000004      43.050000000000004
   274   1      12.915000000000006      53.095000000000006      44.485000000000007
   275   1      11.480000000000004      51.660000000000004      45.920000000000002
   276   1      12.915000000000006      53.095000000000006      47.355000000000004
   277   1      11.480000000000004      51.660000000000004      48.790000000000006
   278   1      12.915000000000006      53.095000000000006      50.225000000000009
   279   1      11.480000000000004      51.660000000000004      51.660000000000004
   280   1      12.915000000000006      53.095000000000006      53.095000000000006
   281   1      11.480000000000004      51.660000000000004      54.530000000000001
   282   1      12.915000000000006      53.095000000000006      55.965000000000003
   283   1      11.480000000000004      51.660000000000004      57.400000000000006
   284   1      12.915000000000006      53.095000000000006      58.835000000000008
   285   1      11.480000000000004      51.660000000000004      60.270000000000003
   286   1      12.915000000000006      53.095000000000006      61.704999999999991
   287   1      11.480000000000004      51.660000000000004      63.139999999999993
   288   1      12.915000000000006      53.095000000000006      64.575000000000003
   289   1      11.480000000000004      51.660000000000004      66.010000000000005
   290   1      12.915000000000006      53.095000000000006      67.445000000000007
   291   1      12.915000000000006      55.965000000000003      41.615000000000009
   292   1      11.480000000000004      54.530000000000001      43.050000000000004
   293   1      12.915000000000006      55.965000000000003      44.485000000000007
   294   1      11.480000000000004      54.530000000000001      45.920000000000002
   295   1      12.915000000000006      55.965000000000003      47.355000000000004
   296   1      11.480000000000004      54.530000000000001      48.790000000000006
   297   1      12.915000000000006      55.965000000000003      50.225000000000009
   298   1      11.480000000000004      54.530000000000001      51.660000000000004
   299   1      12.915000000000006      55.965000000000003      53.095000000000006
   300   1      11.480000000000004      54.530000000000001      54.530000000000001
   301   1      12.915000000000006      55.965000000000003      55.965000000000003
   302   1      11.480000000000004      54.530000000000001      57.400000000000006
   303   1      12.915000000000006      55.965000000000003      58.835000000000008
   304   1      11.480000000000004      54.530000000000001      60.270000000000003
   305   1      12.915000000000006      55.965000000000003      61.704999999999991
   306   1      11.480000000000004      54.530000000000001      63.139999999999993
   307   1      12.915000000000006      55.965000000000003      64.575000000000003
   308   1      11.480000000000004      54.530000000000001      66.010000000000005
   309   1      12.915000000000006      55.965000000000003      67.445000000000007
   310   1      12.915000000000006      58.835000000000008      41.615000000000009
   311   1      11.480000000000004      57.400000000000006      43.050000000000004
   312   1      12.915000000000006      58.835000000000008      44.485000000000007
   313   1      11.480000000000004      57.400000000000006      45.920000000000002
   314   1      12.915000000000006      58.835000000000008      47.355000000000004
   315   1      11.480000000000004      57.400000000000006      48.790000000000006
   316   1      12.915000000000006      58.835000000000008      50.225000000000009
   317   1      11.480000000000004      57.400000000000006      51.660000000000004
   318   1      12.915000000000006      58.835000000000008      53.095000000000006
   319   1      11.480000000000004      57.400000000000006      54.530000000000001
   320   1      12.915000000000006      58.835000000000008      55.965000000000003
   321   1      11.480000000000004      57.400000000000006      57.400000000000006
   322   1      12.915000000000006      58.835000000000008      58.835000000000008
   323   1      11.480000000000004      57.400000000000006      60.270000000000003
   324   1      12.915000000000006      58.835000000000008      61.704999999999991
   325   1      11.480000000000004      57.400000000000006      63.139999999999993
   326   1      12.915000000000006      58.835000000000008      64.575000000000003
   327   1      11.480000000000004      57.400000000000006      66.010000000000005
   328   1      12.915000000000006      58.835000000000008      67.445000000000007
   329   1      12.915000000000006      61.704999999999991      41.615000000000009
   330   1      11.480000000000004      60.270000000000003      43.050000000000004
   331   1      12.915000000000006      61.704999999999991      44.485000000000007
   332   1      11.480000000000004      60.270000000000003      45.920000000000002
   333   1      12.915000000000006      61.704999999999991      47.355000000000004
   334   1      11.480000000000004      60.270000000000003      48.790000000000006
   335   1      12.915000000000006      61.704999999999991      50.225000000000009
   336   1      11.480000000000004      60.270000000000003      51.660000000000004
   337   1      12.915000000000006      61.704999999999991      53.095000000000006
   338   1      11.480000000000004      60.270000000000003      54.530000000000001
   339   1      12.915000000000006      61.704999999999991      55.965000000000003
   340   1      11.480000000000004      60.270000000000003      57.400000000000006
   341   1      12.915000000000006      61.704999999999991      58.835000000000008
   342   1      11.480000000000004      60.270000000000003      60.270000000000003
   343   1      12.915000000000006      61.704999999999991      61.704999999999991
   344   1      11.480000000000004      60.270000000000003      63.139999999999993
   345   1      12.915000000000006      61.704999999999991      64.575000000000003
   346   1      11.480000000000004      60.270000000000003      66.010000000000005
   347   1      12.915000000000006      61.704999999999991      67.445000000000007
   348   1      12.915000000000006      64.575000000000003      41.615000000000009
   349   1      11.480000000000004      63.139999999999993      43.050000000000004
   350   1      12.915000000000006      64.575000000000003      44.485000000000007
   351   1      11.480000000000004      63.139999999999993      45.920000000000002
   352   1      12.915000000000006      64.575000000000003      47.355000000000004
   353   1      11.480000000000004      63.139999999999993      48.790000000000006
   354   1      12.915000000000006      64.575000000000003      50.225000000000009
   355   1      11.480000000000004      63.139999999999993      51.660000000000004
   356   1      12.915000000000006      64.575000000000003      53.095000000000006
   357   1      11.480000000000004      63.139999999999993      54.530000000000001
   358   1      12.915000000000006      64.575000000000003      55.965000000000003