model_files/Fe/Fe_30000/Fe_532/data.Fe_532_bcc_30213 (written by ASE) 

30213 	 atoms 
1  atom types
0.0                      80  xlo xhi
0.0                      80  ylo yhi
0.0                      80  zlo zhi


Atoms 

     1   1      1.4349999999999952      35.874999999999993                   40.18
     2   1      1.4349999999999952      37.309999999999988       38.74499999999999
     3   1      1.4349999999999952       38.74499999999999      37.309999999999988
     4   1      1.4349999999999952      37.309999999999988      41.614999999999995
     5   1      1.4349999999999952       38.74499999999999                   40.18
     6   1      1.4349999999999952       38.74499999999999       43.04999999999999
     7   1      1.4349999999999952                   40.18      35.874999999999993
     8   1      1.4349999999999952                   40.18       38.74499999999999
     9   1      1.4349999999999952      41.614999999999995      37.309999999999988
    10   1      79.999999999999986                   40.18                   40.18
    11   1      1.4349999999999952                   40.18      41.614999999999995
    12   1      1.4349999999999952      41.614999999999995                   40.18
    13   1      1.4349999999999952                   40.18      44.484999999999992
    14   1      1.4349999999999952      41.614999999999995       43.04999999999999
    15   1      1.4349999999999952       43.04999999999999       38.74499999999999
    16   1      1.4349999999999952       43.04999999999999      41.614999999999995
    17   1      1.4349999999999952      44.484999999999992                   40.18
    18   1      4.3049999999999926      33.004999999999995      37.309999999999988
    19   1      4.3049999999999926      33.004999999999995                   40.18
    20   1      4.3049999999999926      33.004999999999995       43.04999999999999
    21   1      4.3049999999999926      34.439999999999991      35.874999999999993
    22   1      4.3049999999999926      35.874999999999993      34.439999999999991
    23   1      2.8699999999999974      35.874999999999993       38.74499999999999
    24   1      4.3049999999999926      34.439999999999991       38.74499999999999
    25   1      4.3049999999999926      35.874999999999993      37.309999999999988
    26   1      2.8699999999999974      34.439999999999991                   40.18
    27   1      2.8699999999999974      35.874999999999993      41.614999999999995
    28   1      4.3049999999999926      34.439999999999991      41.614999999999995
    29   1      4.3049999999999926      35.874999999999993                   40.18
    30   1      4.3049999999999926      34.439999999999991      44.484999999999992
    31   1      4.3049999999999926      35.874999999999993       43.04999999999999
    32   1      4.3049999999999926      35.874999999999993      45.919999999999987
    33   1      4.3049999999999926      37.309999999999988      33.004999999999995
    34   1      2.8699999999999974       38.74499999999999      35.874999999999993
    35   1      4.3049999999999926      37.309999999999988      35.874999999999993
    36   1      4.3049999999999926       38.74499999999999      34.439999999999991
    37   1      2.8699999999999974      37.309999999999988      37.309999999999988
    38   1      2.8699999999999974       38.74499999999999       38.74499999999999
    39   1      4.3049999999999926      37.309999999999988       38.74499999999999
    40   1      4.3049999999999926       38.74499999999999      37.309999999999988
    41   1      2.8699999999999974      37.309999999999988                   40.18
    42   1      2.8699999999999974       38.74499999999999      41.614999999999995
    43   1      4.3049999999999926      37.309999999999988      41.614999999999995
    44   1      4.3049999999999926       38.74499999999999                   40.18
    45   1      2.8699999999999974      37.309999999999988       43.04999999999999
    46   1      2.8699999999999974       38.74499999999999      44.484999999999992
    47   1      4.3049999999999926      37.309999999999988      44.484999999999992
    48   1      4.3049999999999926       38.74499999999999       43.04999999999999
    49   1      4.3049999999999926      37.309999999999988       47.35499999999999
    50   1      4.3049999999999926       38.74499999999999      45.919999999999987
    51   1      4.3049999999999926                   40.18      33.004999999999995
    52   1      2.8699999999999974                   40.18      34.439999999999991
    53   1      2.8699999999999974      41.614999999999995      35.874999999999993
    54   1      4.3049999999999926                   40.18      35.874999999999993
    55   1      4.3049999999999926      41.614999999999995      34.439999999999991
    56   1      2.8699999999999974                   40.18      37.309999999999988
    57   1      2.8699999999999974      41.614999999999995       38.74499999999999
    58   1      4.3049999999999926                   40.18       38.74499999999999
    59   1      4.3049999999999926      41.614999999999995      37.309999999999988
    60   1      2.8699999999999974                   40.18                   40.18
    61   1      2.8699999999999974      41.614999999999995      41.614999999999995
    62   1      4.3049999999999926                   40.18      41.614999999999995
    63   1      4.3049999999999926      41.614999999999995                   40.18
    64   1      2.8699999999999974                   40.18       43.04999999999999
    65   1      2.8699999999999974      41.614999999999995      44.484999999999992
    66   1      4.3049999999999926                   40.18      44.484999999999992
    67   1      4.3049999999999926      41.614999999999995       43.04999999999999
    68   1      2.8699999999999974                   40.18      45.919999999999987
    69   1      4.3049999999999926                   40.18       47.35499999999999
    70   1      4.3049999999999926      41.614999999999995      45.919999999999987
    71   1      4.3049999999999926       43.04999999999999      33.004999999999995
    72   1      4.3049999999999926       43.04999999999999      35.874999999999993
    73   1      4.3049999999999926      44.484999999999992      34.439999999999991
    74   1      2.8699999999999974       43.04999999999999      37.309999999999988
    75   1      2.8699999999999974      44.484999999999992       38.74499999999999
    76   1      4.3049999999999926       43.04999999999999       38.74499999999999
    77   1      4.3049999999999926      44.484999999999992      37.309999999999988
    78   1      2.8699999999999974       43.04999999999999                   40.18
    79   1      2.8699999999999974      44.484999999999992      41.614999999999995
    80   1      4.3049999999999926       43.04999999999999      41.614999999999995
    81   1      4.3049999999999926      44.484999999999992                   40.18
    82   1      2.8699999999999974       43.04999999999999       43.04999999999999
    83   1      4.3049999999999926       43.04999999999999      44.484999999999992
    84   1      4.3049999999999926      44.484999999999992       43.04999999999999
    85   1      4.3049999999999926       43.04999999999999       47.35499999999999
    86   1      4.3049999999999926      44.484999999999992      45.919999999999987
    87   1      4.3049999999999926      45.919999999999987      35.874999999999993
    88   1      4.3049999999999926      45.919999999999987       38.74499999999999
    89   1      4.3049999999999926       47.35499999999999      37.309999999999988
    90   1      2.8699999999999974      45.919999999999987                   40.18
    91   1      4.3049999999999926      45.919999999999987      41.614999999999995
    92   1      4.3049999999999926       47.35499999999999                   40.18
    93   1      4.3049999999999926      45.919999999999987      44.484999999999992
    94   1      4.3049999999999926       47.35499999999999       43.04999999999999
    95   1       7.174999999999998      27.264999999999993                   40.18
    96   1       7.174999999999998      30.134999999999991      34.439999999999991
    97   1      5.7399999999999949      30.134999999999991       38.74499999999999
    98   1       7.174999999999998      28.699999999999992       38.74499999999999
    99   1       7.174999999999998      30.134999999999991      37.309999999999988
   100   1      5.7399999999999949      28.699999999999992                   40.18
   101   1      5.7399999999999949      30.134999999999991      41.614999999999995
   102   1       7.174999999999998      28.699999999999992      41.614999999999995
   103   1       7.174999999999998      30.134999999999991                   40.18
   104   1       7.174999999999998      30.134999999999991       43.04999999999999
   105   1       7.174999999999998      30.134999999999991      45.919999999999987
   106   1       7.174999999999998      31.569999999999997      33.004999999999995
   107   1       7.174999999999998      33.004999999999995      31.569999999999997
   108   1      5.7399999999999949      33.004999999999995      35.874999999999993
   109   1       7.174999999999998      31.569999999999997      35.874999999999993
   110   1       7.174999999999998      33.004999999999995      34.439999999999991
   111   1      5.7399999999999949      31.569999999999997      37.309999999999988
   112   1      5.7399999999999949      33.004999999999995       38.74499999999999
   113   1       7.174999999999998      31.569999999999997       38.74499999999999
   114   1       7.174999999999998      33.004999999999995      37.309999999999988
   115   1      5.7399999999999949      31.569999999999997                   40.18
   116   1      5.7399999999999949      33.004999999999995      41.614999999999995
   117   1       7.174999999999998      31.569999999999997      41.614999999999995
   118   1       7.174999999999998      33.004999999999995                   40.18
   119   1      5.7399999999999949      31.569999999999997       43.04999999999999
   120   1      5.7399999999999949      33.004999999999995      44.484999999999992
   121   1       7.174999999999998      31.569999999999997      44.484999999999992
   122   1       7.174999999999998      33.004999999999995       43.04999999999999
   123   1       7.174999999999998      31.569999999999997       47.35499999999999
   124   1       7.174999999999998      33.004999999999995      45.919999999999987
   125   1       7.174999999999998      33.004999999999995      48.789999999999992
   126   1       7.174999999999998      34.439999999999991      30.134999999999991
   127   1      5.7399999999999949      35.874999999999993      33.004999999999995
   128   1       7.174999999999998      34.439999999999991      33.004999999999995
   129   1       7.174999999999998      35.874999999999993      31.569999999999997
   130   1      5.7399999999999949      34.439999999999991      34.439999999999991
   131   1      5.7399999999999949      35.874999999999993      35.874999999999993
   132   1       7.174999999999998      34.439999999999991      35.874999999999993
   133   1       7.174999999999998      35.874999999999993      34.439999999999991
   134   1      5.7399999999999949      34.439999999999991      37.309999999999988
   135   1      5.7399999999999949      35.874999999999993       38.74499999999999
   136   1       7.174999999999998      34.439999999999991       38.74499999999999
   137   1       7.174999999999998      35.874999999999993      37.309999999999988
   138   1      5.7399999999999949      34.439999999999991                   40.18
   139   1      5.7399999999999949      35.874999999999993      41.614999999999995
   140   1       7.174999999999998      34.439999999999991      41.614999999999995
   141   1       7.174999999999998      35.874999999999993                   40.18
   142   1      5.7399999999999949      34.439999999999991       43.04999999999999
   143   1      5.7399999999999949      35.874999999999993      44.484999999999992
   144   1       7.174999999999998      34.439999999999991      44.484999999999992
   145   1       7.174999999999998      35.874999999999993       43.04999999999999
   146   1      5.7399999999999949      34.439999999999991      45.919999999999987
   147   1      5.7399999999999949      35.874999999999993       47.35499999999999
   148   1       7.174999999999998      34.439999999999991       47.35499999999999
   149   1       7.174999999999998      35.874999999999993      45.919999999999987
   150   1       7.174999999999998      34.439999999999991      50.225000000000001
   151   1       7.174999999999998      35.874999999999993      48.789999999999992
   152   1      5.7399999999999949       38.74499999999999      30.134999999999991
   153   1       7.174999999999998      37.309999999999988      30.134999999999991
   154   1       7.174999999999998       38.74499999999999      28.699999999999992
   155   1      5.7399999999999949      37.309999999999988      31.569999999999997
   156   1      5.7399999999999949       38.74499999999999      33.004999999999995
   157   1       7.174999999999998      37.309999999999988      33.004999999999995
   158   1       7.174999999999998       38.74499999999999      31.569999999999997
   159   1      5.7399999999999949      37.309999999999988      34.439999999999991
   160   1      5.7399999999999949       38.74499999999999      35.874999999999993
   161   1       7.174999999999998      37.309999999999988      35.874999999999993
   162   1       7.174999999999998       38.74499999999999      34.439999999999991
   163   1      5.7399999999999949      37.309999999999988      37.309999999999988
   164   1      5.7399999999999949       38.74499999999999       38.74499999999999
   165   1       7.174999999999998      37.309999999999988       38.74499999999999
   166   1       7.174999999999998       38.74499999999999      37.309999999999988
   167   1      5.7399999999999949      37.309999999999988                   40.18
   168   1      5.7399999999999949       38.74499999999999      41.614999999999995
   169   1       7.174999999999998      37.309999999999988      41.614999999999995
   170   1       7.174999999999998       38.74499999999999                   40.18
   171   1      5.7399999999999949      37.309999999999988       43.04999999999999
   172   1      5.7399999999999949       38.74499999999999      44.484999999999992
   173   1       7.174999999999998      37.309999999999988      44.484999999999992
   174   1       7.174999999999998       38.74499999999999       43.04999999999999
   175   1      5.7399999999999949      37.309999999999988      45.919999999999987
   176   1      5.7399999999999949       38.74499999999999       47.35499999999999
   177   1       7.174999999999998      37.309999999999988       47.35499999999999
   178   1       7.174999999999998       38.74499999999999      45.919999999999987
   179   1      5.7399999999999949      37.309999999999988      48.789999999999992
   180   1      5.7399999999999949       38.74499999999999      50.225000000000001
   181   1       7.174999999999998      37.309999999999988      50.225000000000001
   182   1       7.174999999999998       38.74499999999999      48.789999999999992
   183   1       7.174999999999998       38.74499999999999      51.659999999999997
   184   1       7.174999999999998                   40.18      27.264999999999993
   185   1      5.7399999999999949                   40.18      28.699999999999992
   186   1      5.7399999999999949      41.614999999999995      30.134999999999991
   187   1       7.174999999999998                   40.18      30.134999999999991
   188   1       7.174999999999998      41.614999999999995      28.699999999999992
   189   1      5.7399999999999949                   40.18      31.569999999999997
   190   1      5.7399999999999949      41.614999999999995      33.004999999999995
   191   1       7.174999999999998                   40.18      33.004999999999995
   192   1       7.174999999999998      41.614999999999995      31.569999999999997
   193   1      5.7399999999999949                   40.18      34.439999999999991
   194   1      5.7399999999999949      41.614999999999995      35.874999999999993
   195   1       7.174999999999998                   40.18      35.874999999999993
   196   1       7.174999999999998      41.614999999999995      34.439999999999991
   197   1      5.7399999999999949                   40.18      37.309999999999988
   198   1      5.7399999999999949      41.614999999999995       38.74499999999999
   199   1       7.174999999999998                   40.18       38.74499999999999
   200   1       7.174999999999998      41.614999999999995      37.309999999999988
   201   1      5.7399999999999949                   40.18                   40.18
   202   1      5.7399999999999949      41.614999999999995      41.614999999999995
   203   1       7.174999999999998                   40.18      41.614999999999995
   204   1       7.174999999999998      41.614999999999995                   40.18
   205   1      5.7399999999999949                   40.18       43.04999999999999
   206   1      5.7399999999999949      41.614999999999995      44.484999999999992
   207   1       7.174999999999998                   40.18      44.484999999999992
   208   1       7.174999999999998      41.614999999999995       43.04999999999999
   209   1      5.7399999999999949                   40.18      45.919999999999987
   210   1      5.7399999999999949      41.614999999999995       47.35499999999999
   211   1       7.174999999999998                   40.18       47.35499999999999
   212   1       7.174999999999998      41.614999999999995      45.919999999999987
   213   1      5.7399999999999949                   40.18      48.789999999999992
   214   1      5.7399999999999949      41.614999999999995      50.225000000000001
   215   1       7.174999999999998                   40.18      50.225000000000001
   216   1       7.174999999999998      41.614999999999995      48.789999999999992
   217   1      5.7399999999999949                   40.18      51.659999999999997
   218   1       7.174999999999998                   40.18      53.094999999999999
   219   1       7.174999999999998      41.614999999999995      51.659999999999997
   220   1       7.174999999999998       43.04999999999999      30.134999999999991
   221   1      5.7399999999999949       43.04999999999999      31.569999999999997
   222   1      5.7399999999999949      44.484999999999992      33.004999999999995
   223   1       7.174999999999998       43.04999999999999      33.004999999999995
   224   1       7.174999999999998      44.484999999999992      31.569999999999997
   225   1      5.7399999999999949       43.04999999999999      34.439999999999991
   226   1      5.7399999999999949      44.484999999999992      35.874999999999993
   227   1       7.174999999999998       43.04999999999999      35.874999999999993
   228   1       7.174999999999998      44.484999999999992      34.439999999999991
   229   1      5.7399999999999949       43.04999999999999      37.309999999999988
   230   1      5.7399999999999949      44.484999999999992       38.74499999999999
   231   1       7.174999999999998       43.04999999999999       38.74499999999999
   232   1       7.174999999999998      44.484999999999992      37.309999999999988
   233   1      5.7399999999999949       43.04999999999999                   40.18
   234   1      5.7399999999999949      44.484999999999992      41.614999999999995
   235   1       7.174999999999998       43.04999999999999      41.614999999999995
   236   1       7.174999999999998      44.484999999999992                   40.18
   237   1      5.7399999999999949       43.04999999999999       43.04999999999999
   238   1      5.7399999999999949      44.484999999999992      44.484999999999992
   239   1       7.174999999999998       43.04999999999999      44.484999999999992
   240   1       7.174999999999998      44.484999999999992       43.04999999999999
   241   1      5.7399999999999949       43.04999999999999      45.919999999999987
   242   1      5.7399999999999949      44.484999999999992       47.35499999999999
   243   1       7.174999999999998       43.04999999999999       47.35499999999999
   244   1       7.174999999999998      44.484999999999992      45.919999999999987
   245   1      5.7399999999999949       43.04999999999999      48.789999999999992
   246   1       7.174999999999998       43.04999999999999      50.225000000000001
   247   1       7.174999999999998      44.484999999999992      48.789999999999992
   248   1       7.174999999999998      45.919999999999987      30.134999999999991
   249   1       7.174999999999998      45.919999999999987      33.004999999999995
   250   1       7.174999999999998       47.35499999999999      31.569999999999997
   251   1      5.7399999999999949      45.919999999999987      34.439999999999991
   252   1      5.7399999999999949       47.35499999999999      35.874999999999993
   253   1       7.174999999999998      45.919999999999987      35.874999999999993
   254   1       7.174999999999998       47.35499999999999      34.439999999999991
   255   1      5.7399999999999949      45.919999999999987      37.309999999999988
   256   1      5.7399999999999949       47.35499999999999       38.74499999999999
   257   1       7.174999999999998      45.919999999999987       38.74499999999999
   258   1       7.174999999999998       47.35499999999999      37.309999999999988
   259   1      5.7399999999999949      45.919999999999987                   40.18
   260   1      5.7399999999999949       47.35499999999999      41.614999999999995
   261   1       7.174999999999998      45.919999999999987      41.614999999999995
   262   1       7.174999999999998       47.35499999999999                   40.18
   263   1      5.7399999999999949      45.919999999999987       43.04999999999999
   264   1      5.7399999999999949       47.35499999999999      44.484999999999992
   265   1       7.174999999999998      45.919999999999987      44.484999999999992
   266   1       7.174999999999998       47.35499999999999       43.04999999999999
   267   1      5.7399999999999949      45.919999999999987      45.919999999999987
   268   1       7.174999999999998      45.919999999999987       47.35499999999999
   269   1       7.174999999999998       47.35499999999999      45.919999999999987
   270   1       7.174999999999998      45.919999999999987      50.225000000000001
   271   1       7.174999999999998       47.35499999999999      48.789999999999992
   272   1       7.174999999999998      48.789999999999992      33.004999999999995
   273   1       7.174999999999998      48.789999999999992      35.874999999999993
   274   1       7.174999999999998      50.225000000000001      34.439999999999991
   275   1      5.7399999999999949      48.789999999999992      37.309999999999988
   276   1      5.7399999999999949      50.225000000000001       38.74499999999999
   277   1       7.174999999999998      48.789999999999992       38.74499999999999
   278   1       7.174999999999998      50.225000000000001      37.309999999999988
   279   1      5.7399999999999949      48.789999999999992                   40.18
   280   1      5.7399999999999949      50.225000000000001      41.614999999999995
   281   1       7.174999999999998      48.789999999999992      41.614999999999995
   282   1       7.174999999999998      50.225000000000001                   40.18
   283   1      5.7399999999999949      48.789999999999992       43.04999999999999
   284   1       7.174999999999998      48.789999999999992      44.484999999999992
   285   1       7.174999999999998      50.225000000000001       43.04999999999999
   286   1       7.174999999999998      48.789999999999992       47.35499999999999
   287   1       7.174999999999998      50.225000000000001      45.919999999999987
   288   1       7.174999999999998      51.659999999999997       38.74499999999999
   289   1      5.7399999999999949      51.659999999999997                   40.18
   290   1       7.174999999999998      51.659999999999997      41.614999999999995
   291   1       7.174999999999998      53.094999999999999                   40.18
   292   1      10.044999999999995      21.524999999999995                   40.18
   293   1      10.044999999999995      22.959999999999994       38.74499999999999
   294   1      10.044999999999995      24.394999999999992      37.309999999999988
   295   1      10.044999999999995      22.959999999999994      41.614999999999995
   296   1      10.044999999999995      24.394999999999992                   40.18
   297   1      10.044999999999995      24.394999999999992       43.04999999999999
   298   1      10.044999999999995      27.264999999999993      31.569999999999997
   299   1      8.6099999999999923      27.264999999999993      35.874999999999993
   300   1      10.044999999999995      25.829999999999991      35.874999999999993
   301   1      10.044999999999995      27.264999999999993      34.439999999999991
   302   1      8.6099999999999923      25.829999999999991      37.309999999999988
   303   1      8.6099999999999923      27.264999999999993       38.74499999999999
   304   1      10.044999999999995      25.829999999999991       38.74499999999999
   305   1      10.044999999999995      27.264999999999993      37.309999999999988
   306   1      8.6099999999999923      25.829999999999991                   40.18
   307   1      8.6099999999999923      27.264999999999993      41.614999999999995
   308   1      10.044999999999995      25.829999999999991      41.614999999999995
   309   1      10.044999999999995      27.264999999999993                   40.18
   310   1      8.6099999999999923      25.829999999999991       43.04999999999999
   311   1      8.6099999999999923      27.264999999999993      44.484999999999992
   312   1      10.044999999999995      25.829999999999991      44.484999999999992
   313   1      10.044999999999995      27.264999999999993       43.04999999999999
   314   1      10.044999999999995      27.264999999999993      45.919999999999987
   315   1      10.044999999999995      27.264999999999993      48.789999999999992
   316   1      10.044999999999995      28.699999999999992      30.134999999999991
   317   1      10.044999999999995      30.134999999999991      28.699999999999992
   318   1      8.6099999999999923      30.134999999999991      33.004999999999995
   319   1      10.044999999999995      28.699999999999992      33.004999999999995
   320   1      10.044999999999995      30.134999999999991      31.569999999999997
   321   1      8.6099999999999923      28.699999999999992      34.439999999999991
   322   1      8.6099999999999923      30.134999999999991      35.874999999999993
   323   1      10.044999999999995      28.699999999999992      35.874999999999993
   324   1      10.044999999999995      30.134999999999991      34.439999999999991
   325   1      8.6099999999999923      28.699999999999992      37.309999999999988
   326   1      8.6099999999999923      30.134999999999991       38.74499999999999
   327   1      10.044999999999995      28.699999999999992       38.74499999999999
   328   1      10.044999999999995      30.134999999999991      37.309999999999988
   329   1      8.6099999999999923      28.699999999999992                   40.18
   330   1      8.6099999999999923      30.134999999999991      41.614999999999995
   331   1      10.044999999999995      28.699999999999992      41.614999999999995
   332   1      10.044999999999995      30.134999999999991                   40.18
   333   1      8.6099999999999923      28.699999999999992       43.04999999999999
   334   1      8.6099999999999923      30.134999999999991      44.484999999999992
   335   1      10.044999999999995      28.699999999999992      44.484999999999992
   336   1      10.044999999999995      30.134999999999991       43.04999999999999
   337   1      8.6099999999999923      28.699999999999992      45.919999999999987
   338   1      8.6099999999999923      30.134999999999991       47.35499999999999
   339   1      10.044999999999995      28.699999999999992       47.35499999999999
   340   1      10.044999999999995      30.134999999999991      45.919999999999987
   341   1      10.044999999999995      28.699999999999992      50.225000000000001
   342   1      10.044999999999995      30.134999999999991      48.789999999999992
   343   1      10.044999999999995      30.134999999999991      51.659999999999997
   344   1      10.044999999999995      31.569999999999997      27.264999999999993
   345   1      8.6099999999999923      33.004999999999995      30.134999999999991
   346   1      10.044999999999995      31.569999999999997      30.134999999999991
   347   1      10.044999999999995      33.004999999999995      28.699999999999992
   348   1      8.6099999999999923      31.569999999999997      31.569999999999997
   349   1      8.6099999999999923      33.004999999999995      33.004999999999995
   350   1      10.044999999999995      31.569999999999997      33.004999999999995
   351   1      10.044999999999995      33.004999999999995      31.569999999999997
   352   1      8.6099999999999923      31.569999999999997      34.439999999999991
   353   1      8.6099999999999923      33.004999999999995      35.874999999999993
   354   1      10.044999999999995      31.569999999999997      35.874999999999993
   355   1      10.044999999999995      33.004999999999995      34.439999999999991
   356   1      8.6099999999999923      31.569999999999997      37.309999999999988
   357   1      8.6099999999999923      33.004999999999995       38.74499999999999
   358   1      10.044999999999995      31.569999999999997       38.74499999999999