model_files/CuNi/CuNi_30000/CuNi_322/CuNi_322_fcc_30187_temp.data (written by ASE) 

30187 	 atoms 
2  atom types
0.0                     106  xlo xhi
0.0                     106  ylo yhi
0.0                     106  zlo zhi


Atoms 

     1   1      1.7829999999999939      51.707000000000001      53.489999999999995
     2   1      1.7829999999999939      53.489999999999995      51.707000000000001
     3   1                       0      53.489999999999995      53.489999999999995
     4   1      1.7829999999999939      53.489999999999995      55.273000000000003
     5   1      1.7829999999999939      55.273000000000003      53.489999999999995
     6   1      5.3489999999999966      44.575000000000003      53.489999999999995
     7   1      3.5659999999999954      48.140999999999998      51.707000000000001
     8   1      5.3489999999999966      46.358000000000004      51.707000000000001
     9   1      5.3489999999999966      48.140999999999998      49.923999999999992
    10   1      3.5659999999999954      46.358000000000004      53.489999999999995
    11   1      3.5659999999999954      48.140999999999998      55.273000000000003
    12   1      5.3489999999999966      46.358000000000004      55.273000000000003
    13   1      5.3489999999999966      48.140999999999998      53.489999999999995
    14   1      5.3489999999999966      48.140999999999998      57.056000000000012
    15   1      3.5659999999999954      51.707000000000001      48.140999999999998
    16   1      5.3489999999999966      49.923999999999992      48.140999999999998
    17   1      5.3489999999999966      51.707000000000001      46.358000000000004
    18   1      3.5659999999999954      49.923999999999992      49.923999999999992
    19   1      3.5659999999999954      51.707000000000001      51.707000000000001
    20   1      5.3489999999999966      49.923999999999992      51.707000000000001
    21   1      5.3489999999999966      51.707000000000001      49.923999999999992
    22   1      3.5659999999999954      49.923999999999992      53.489999999999995
    23   1      3.5659999999999954      51.707000000000001      55.273000000000003
    24   1      5.3489999999999966      49.923999999999992      55.273000000000003
    25   1      5.3489999999999966      51.707000000000001      53.489999999999995
    26   1      3.5659999999999954      49.923999999999992      57.056000000000012
    27   1      3.5659999999999954      51.707000000000001      58.839000000000006
    28   1      5.3489999999999966      49.923999999999992      58.839000000000006
    29   1      5.3489999999999966      51.707000000000001      57.056000000000012
    30   1      5.3489999999999966      51.707000000000001                  60.622
    31   1      5.3489999999999966      53.489999999999995      44.575000000000003
    32   1      3.5659999999999954      53.489999999999995      46.358000000000004
    33   1      3.5659999999999954      55.273000000000003      48.140999999999998
    34   1      5.3489999999999966      53.489999999999995      48.140999999999998
    35   1      5.3489999999999966      55.273000000000003      46.358000000000004
    36   1      3.5659999999999954      53.489999999999995      49.923999999999992
    37   1      3.5659999999999954      55.273000000000003      51.707000000000001
    38   1      5.3489999999999966      53.489999999999995      51.707000000000001
    39   1      5.3489999999999966      55.273000000000003      49.923999999999992
    40   1      3.5659999999999954      53.489999999999995      53.489999999999995
    41   1      3.5659999999999954      55.273000000000003      55.273000000000003
    42   1      5.3489999999999966      53.489999999999995      55.273000000000003
    43   1      5.3489999999999966      55.273000000000003      53.489999999999995
    44   1      3.5659999999999954      53.489999999999995      57.056000000000012
    45   1      3.5659999999999954      55.273000000000003      58.839000000000006
    46   1      5.3489999999999966      53.489999999999995      58.839000000000006
    47   1      5.3489999999999966      55.273000000000003      57.056000000000012
    48   1      3.5659999999999954      53.489999999999995                  60.622
    49   1      5.3489999999999966      53.489999999999995      62.405000000000001
    50   1      5.3489999999999966      55.273000000000003                  60.622
    51   1      5.3489999999999966      57.056000000000012      48.140999999999998
    52   1      3.5659999999999954      57.056000000000012      49.923999999999992
    53   1      3.5659999999999954      58.839000000000006      51.707000000000001
    54   1      5.3489999999999966      57.056000000000012      51.707000000000001
    55   1      5.3489999999999966      58.839000000000006      49.923999999999992
    56   1      3.5659999999999954      57.056000000000012      53.489999999999995
    57   1      3.5659999999999954      58.839000000000006      55.273000000000003
    58   1      5.3489999999999966      57.056000000000012      55.273000000000003
    59   1      5.3489999999999966      58.839000000000006      53.489999999999995
    60   1      3.5659999999999954      57.056000000000012      57.056000000000012
    61   1      5.3489999999999966      57.056000000000012      58.839000000000006
    62   1      5.3489999999999966      58.839000000000006      57.056000000000012
    63   1      5.3489999999999966                  60.622      51.707000000000001
    64   1      3.5659999999999954                  60.622      53.489999999999995
    65   1      5.3489999999999966                  60.622      55.273000000000003
    66   1      5.3489999999999966      62.405000000000001      53.489999999999995
    67   1      8.9149999999999991                  41.009      53.489999999999995
    68   1      7.1319999999999979      44.575000000000003      51.707000000000001
    69   1      8.9149999999999991      42.792000000000002      51.707000000000001
    70   1      8.9149999999999991      44.575000000000003      49.923999999999992
    71   1      7.1319999999999979      42.792000000000002      53.489999999999995
    72   1      7.1319999999999979      44.575000000000003      55.273000000000003
    73   1      8.9149999999999991      42.792000000000002      55.273000000000003
    74   1      8.9149999999999991      44.575000000000003      53.489999999999995
    75   1      8.9149999999999991      44.575000000000003      57.056000000000012
    76   1      7.1319999999999979      48.140999999999998      48.140999999999998
    77   1      8.9149999999999991      46.358000000000004      48.140999999999998
    78   1      8.9149999999999991      48.140999999999998      46.358000000000004
    79   1      7.1319999999999979      46.358000000000004      49.923999999999992
    80   1      7.1319999999999979      48.140999999999998      51.707000000000001
    81   1      8.9149999999999991      46.358000000000004      51.707000000000001
    82   1      8.9149999999999991      48.140999999999998      49.923999999999992
    83   1      7.1319999999999979      46.358000000000004      53.489999999999995
    84   1      7.1319999999999979      48.140999999999998      55.273000000000003
    85   1      8.9149999999999991      46.358000000000004      55.273000000000003
    86   1      8.9149999999999991      48.140999999999998      53.489999999999995
    87   1      7.1319999999999979      46.358000000000004      57.056000000000012
    88   1      7.1319999999999979      48.140999999999998      58.839000000000006
    89   1      8.9149999999999991      46.358000000000004      58.839000000000006
    90   1      8.9149999999999991      48.140999999999998      57.056000000000012
    91   1      8.9149999999999991      48.140999999999998                  60.622
    92   1      7.1319999999999979      51.707000000000001      44.575000000000003
    93   1      8.9149999999999991      49.923999999999992      44.575000000000003
    94   1      8.9149999999999991      51.707000000000001      42.792000000000002
    95   1      7.1319999999999979      49.923999999999992      46.358000000000004
    96   1      7.1319999999999979      51.707000000000001      48.140999999999998
    97   1      8.9149999999999991      49.923999999999992      48.140999999999998
    98   1      8.9149999999999991      51.707000000000001      46.358000000000004
    99   1      7.1319999999999979      49.923999999999992      49.923999999999992
   100   1      7.1319999999999979      51.707000000000001      51.707000000000001
   101   1      8.9149999999999991      49.923999999999992      51.707000000000001
   102   1      8.9149999999999991      51.707000000000001      49.923999999999992
   103   1      7.1319999999999979      49.923999999999992      53.489999999999995
   104   1      7.1319999999999979      51.707000000000001      55.273000000000003
   105   1      8.9149999999999991      49.923999999999992      55.273000000000003
   106   1      8.9149999999999991      51.707000000000001      53.489999999999995
   107   1      7.1319999999999979      49.923999999999992      57.056000000000012
   108   1      7.1319999999999979      51.707000000000001      58.839000000000006
   109   1      8.9149999999999991      49.923999999999992      58.839000000000006
   110   1      8.9149999999999991      51.707000000000001      57.056000000000012
   111   1      7.1319999999999979      49.923999999999992                  60.622
   112   1      7.1319999999999979      51.707000000000001      62.405000000000001
   113   1      8.9149999999999991      49.923999999999992      62.405000000000001
   114   1      8.9149999999999991      51.707000000000001                  60.622
   115   1      8.9149999999999991      51.707000000000001      64.188000000000002
   116   1      8.9149999999999991      53.489999999999995                  41.009
   117   1      7.1319999999999979      53.489999999999995      42.792000000000002
   118   1      7.1319999999999979      55.273000000000003      44.575000000000003
   119   1      8.9149999999999991      53.489999999999995      44.575000000000003
   120   1      8.9149999999999991      55.273000000000003      42.792000000000002
   121   1      7.1319999999999979      53.489999999999995      46.358000000000004
   122   1      7.1319999999999979      55.273000000000003      48.140999999999998
   123   1      8.9149999999999991      53.489999999999995      48.140999999999998
   124   1      8.9149999999999991      55.273000000000003      46.358000000000004
   125   1      7.1319999999999979      53.489999999999995      49.923999999999992
   126   1      7.1319999999999979      55.273000000000003      51.707000000000001
   127   1      8.9149999999999991      53.489999999999995      51.707000000000001
   128   1      8.9149999999999991      55.273000000000003      49.923999999999992
   129   1      7.1319999999999979      53.489999999999995      53.489999999999995
   130   1      7.1319999999999979      55.273000000000003      55.273000000000003
   131   1      8.9149999999999991      53.489999999999995      55.273000000000003
   132   1      8.9149999999999991      55.273000000000003      53.489999999999995
   133   1      7.1319999999999979      53.489999999999995      57.056000000000012
   134   1      7.1319999999999979      55.273000000000003      58.839000000000006
   135   1      8.9149999999999991      53.489999999999995      58.839000000000006
   136   1      8.9149999999999991      55.273000000000003      57.056000000000012
   137   1      7.1319999999999979      53.489999999999995                  60.622
   138   1      7.1319999999999979      55.273000000000003      62.405000000000001
   139   1      8.9149999999999991      53.489999999999995      62.405000000000001
   140   1      8.9149999999999991      55.273000000000003                  60.622
   141   1      7.1319999999999979      53.489999999999995      64.188000000000002
   142   1      8.9149999999999991      53.489999999999995      65.971000000000004
   143   1      8.9149999999999991      55.273000000000003      64.188000000000002
   144   1      8.9149999999999991      57.056000000000012      44.575000000000003
   145   1      7.1319999999999979      57.056000000000012      46.358000000000004
   146   1      7.1319999999999979      58.839000000000006      48.140999999999998
   147   1      8.9149999999999991      57.056000000000012      48.140999999999998
   148   1      8.9149999999999991      58.839000000000006      46.358000000000004
   149   1      7.1319999999999979      57.056000000000012      49.923999999999992
   150   1      7.1319999999999979      58.839000000000006      51.707000000000001
   151   1      8.9149999999999991      57.056000000000012      51.707000000000001
   152   1      8.9149999999999991      58.839000000000006      49.923999999999992
   153   1      7.1319999999999979      57.056000000000012      53.489999999999995
   154   1      7.1319999999999979      58.839000000000006      55.273000000000003
   155   1      8.9149999999999991      57.056000000000012      55.273000000000003
   156   1      8.9149999999999991      58.839000000000006      53.489999999999995
   157   1      7.1319999999999979      57.056000000000012      57.056000000000012
   158   1      7.1319999999999979      58.839000000000006      58.839000000000006
   159   1      8.9149999999999991      57.056000000000012      58.839000000000006
   160   1      8.9149999999999991      58.839000000000006      57.056000000000012
   161   1      7.1319999999999979      57.056000000000012                  60.622
   162   1      8.9149999999999991      57.056000000000012      62.405000000000001
   163   1      8.9149999999999991      58.839000000000006                  60.622
   164   1      8.9149999999999991                  60.622      48.140999999999998
   165   1      7.1319999999999979                  60.622      49.923999999999992
   166   1      7.1319999999999979      62.405000000000001      51.707000000000001
   167   1      8.9149999999999991                  60.622      51.707000000000001
   168   1      8.9149999999999991      62.405000000000001      49.923999999999992
   169   1      7.1319999999999979                  60.622      53.489999999999995
   170   1      7.1319999999999979      62.405000000000001      55.273000000000003
   171   1      8.9149999999999991                  60.622      55.273000000000003
   172   1      8.9149999999999991      62.405000000000001      53.489999999999995
   173   1      7.1319999999999979                  60.622      57.056000000000012
   174   1      8.9149999999999991                  60.622      58.839000000000006
   175   1      8.9149999999999991      62.405000000000001      57.056000000000012
   176   1      8.9149999999999991      64.188000000000002      51.707000000000001
   177   1      7.1319999999999979      64.188000000000002      53.489999999999995
   178   1      8.9149999999999991      64.188000000000002      55.273000000000003
   179   1      8.9149999999999991      65.971000000000004      53.489999999999995
   180   1      12.481000000000002      33.876999999999995      53.489999999999995
   181   1                  10.698      37.443000000000005      51.707000000000001
   182   1      12.481000000000002      35.660000000000004      51.707000000000001
   183   1      12.481000000000002      37.443000000000005      49.923999999999992
   184   1                  10.698      35.660000000000004      53.489999999999995
   185   1                  10.698      37.443000000000005      55.273000000000003
   186   1      12.481000000000002      35.660000000000004      55.273000000000003
   187   1      12.481000000000002      37.443000000000005      53.489999999999995
   188   1      12.481000000000002      37.443000000000005      57.056000000000012
   189   1                  10.698                  41.009      48.140999999999998
   190   1      12.481000000000002      39.225999999999999      48.140999999999998
   191   1      12.481000000000002                  41.009      46.358000000000004
   192   1                  10.698      39.225999999999999      49.923999999999992
   193   1                  10.698                  41.009      51.707000000000001
   194   1      12.481000000000002      39.225999999999999      51.707000000000001
   195   1      12.481000000000002                  41.009      49.923999999999992
   196   1                  10.698      39.225999999999999      53.489999999999995
   197   1                  10.698                  41.009      55.273000000000003
   198   1      12.481000000000002      39.225999999999999      55.273000000000003
   199   1      12.481000000000002                  41.009      53.489999999999995
   200   1                  10.698      39.225999999999999      57.056000000000012
   201   1                  10.698                  41.009      58.839000000000006
   202   1      12.481000000000002      39.225999999999999      58.839000000000006
   203   1      12.481000000000002                  41.009      57.056000000000012
   204   1      12.481000000000002                  41.009                  60.622
   205   1                  10.698      44.575000000000003      44.575000000000003
   206   1      12.481000000000002      42.792000000000002      44.575000000000003
   207   1      12.481000000000002      44.575000000000003      42.792000000000002
   208   1                  10.698      42.792000000000002      46.358000000000004
   209   1                  10.698      44.575000000000003      48.140999999999998
   210   1      12.481000000000002      42.792000000000002      48.140999999999998
   211   1      12.481000000000002      44.575000000000003      46.358000000000004
   212   1                  10.698      42.792000000000002      49.923999999999992
   213   1                  10.698      44.575000000000003      51.707000000000001
   214   1      12.481000000000002      42.792000000000002      51.707000000000001
   215   1      12.481000000000002      44.575000000000003      49.923999999999992
   216   1                  10.698      42.792000000000002      53.489999999999995
   217   1                  10.698      44.575000000000003      55.273000000000003
   218   1      12.481000000000002      42.792000000000002      55.273000000000003
   219   1      12.481000000000002      44.575000000000003      53.489999999999995
   220   1                  10.698      42.792000000000002      57.056000000000012
   221   1                  10.698      44.575000000000003      58.839000000000006
   222   1      12.481000000000002      42.792000000000002      58.839000000000006
   223   1      12.481000000000002      44.575000000000003      57.056000000000012
   224   1                  10.698      42.792000000000002                  60.622
   225   1                  10.698      44.575000000000003      62.405000000000001
   226   1      12.481000000000002      42.792000000000002      62.405000000000001
   227   1      12.481000000000002      44.575000000000003                  60.622
   228   1      12.481000000000002      44.575000000000003      64.188000000000002
   229   1                  10.698      48.140999999999998                  41.009
   230   1      12.481000000000002      46.358000000000004                  41.009
   231   1      12.481000000000002      48.140999999999998      39.225999999999999
   232   1                  10.698      46.358000000000004      42.792000000000002
   233   1                  10.698      48.140999999999998      44.575000000000003
   234   1      12.481000000000002      46.358000000000004      44.575000000000003
   235   1      12.481000000000002      48.140999999999998      42.792000000000002
   236   1                  10.698      46.358000000000004      46.358000000000004
   237   1                  10.698      48.140999999999998      48.140999999999998
   238   1      12.481000000000002      46.358000000000004      48.140999999999998
   239   1      12.481000000000002      48.140999999999998      46.358000000000004
   240   1                  10.698      46.358000000000004      49.923999999999992
   241   1                  10.698      48.140999999999998      51.707000000000001
   242   1      12.481000000000002      46.358000000000004      51.707000000000001
   243   1      12.481000000000002      48.140999999999998      49.923999999999992
   244   1                  10.698      46.358000000000004      53.489999999999995
   245   1                  10.698      48.140999999999998      55.273000000000003
   246   1      12.481000000000002      46.358000000000004      55.273000000000003
   247   1      12.481000000000002      48.140999999999998      53.489999999999995
   248   1                  10.698      46.358000000000004      57.056000000000012
   249   1                  10.698      48.140999999999998      58.839000000000006
   250   1      12.481000000000002      46.358000000000004      58.839000000000006
   251   1      12.481000000000002      48.140999999999998      57.056000000000012
   252   1                  10.698      46.358000000000004                  60.622
   253   1                  10.698      48.140999999999998      62.405000000000001
   254   1      12.481000000000002      46.358000000000004      62.405000000000001
   255   1      12.481000000000002      48.140999999999998                  60.622
   256   1                  10.698      46.358000000000004      64.188000000000002
   257   1                  10.698      48.140999999999998      65.971000000000004
   258   1      12.481000000000002      46.358000000000004      65.971000000000004
   259   1      12.481000000000002      48.140999999999998      64.188000000000002
   260   1      12.481000000000002      48.140999999999998      67.753999999999991
   261   1                  10.698      51.707000000000001      37.443000000000005
   262   1      12.481000000000002      49.923999999999992      37.443000000000005
   263   1      12.481000000000002      51.707000000000001      35.660000000000004
   264   1                  10.698      49.923999999999992      39.225999999999999
   265   1                  10.698      51.707000000000001                  41.009
   266   1      12.481000000000002      49.923999999999992                  41.009
   267   1      12.481000000000002      51.707000000000001      39.225999999999999
   268   1                  10.698      49.923999999999992      42.792000000000002
   269   1                  10.698      51.707000000000001      44.575000000000003
   270   1      12.481000000000002      49.923999999999992      44.575000000000003
   271   1      12.481000000000002      51.707000000000001      42.792000000000002
   272   1                  10.698      49.923999999999992      46.358000000000004
   273   1                  10.698      51.707000000000001      48.140999999999998
   274   1      12.481000000000002      49.923999999999992      48.140999999999998
   275   1      12.481000000000002      51.707000000000001      46.358000000000004
   276   1                  10.698      49.923999999999992      49.923999999999992
   277   1                  10.698      51.707000000000001      51.707000000000001
   278   1      12.481000000000002      49.923999999999992      51.707000000000001
   279   1      12.481000000000002      51.707000000000001      49.923999999999992
   280   1                  10.698      49.923999999999992      53.489999999999995
   281   1                  10.698      51.707000000000001      55.273000000000003
   282   1      12.481000000000002      49.923999999999992      55.273000000000003
   283   1      12.481000000000002      51.707000000000001      53.489999999999995
   284   1                  10.698      49.923999999999992      57.056000000000012
   285   1                  10.698      51.707000000000001      58.839000000000006
   286   1      12.481000000000002      49.923999999999992      58.839000000000006
   287   1      12.481000000000002      51.707000000000001      57.056000000000012
   288   1                  10.698      49.923999999999992                  60.622
   289   1                  10.698      51.707000000000001      62.405000000000001
   290   1      12.481000000000002      49.923999999999992      62.405000000000001
   291   1      12.481000000000002      51.707000000000001                  60.622
   292   1                  10.698      49.923999999999992      64.188000000000002
   293   1                  10.698      51.707000000000001      65.971000000000004
   294   1      12.481000000000002      49.923999999999992      65.971000000000004
   295   1      12.481000000000002      51.707000000000001      64.188000000000002
   296   1                  10.698      49.923999999999992      67.753999999999991
   297   1                  10.698      51.707000000000001      69.537000000000006
   298   1      12.481000000000002      49.923999999999992      69.537000000000006
   299   1      12.481000000000002      51.707000000000001      67.753999999999991
   300   1      12.481000000000002      51.707000000000001      71.320000000000007
   301   1      12.481000000000002      53.489999999999995      33.876999999999995
   302   1                  10.698      53.489999999999995      35.660000000000004
   303   1                  10.698      55.273000000000003      37.443000000000005
   304   1      12.481000000000002      53.489999999999995      37.443000000000005
   305   1      12.481000000000002      55.273000000000003      35.660000000000004
   306   1                  10.698      53.489999999999995      39.225999999999999
   307   1                  10.698      55.273000000000003                  41.009
   308   1      12.481000000000002      53.489999999999995                  41.009
   309   1      12.481000000000002      55.273000000000003      39.225999999999999
   310   1                  10.698      53.489999999999995      42.792000000000002
   311   1                  10.698      55.273000000000003      44.575000000000003
   312   1      12.481000000000002      53.489999999999995      44.575000000000003
   313   1      12.481000000000002      55.273000000000003      42.792000000000002
   314   1                  10.698      53.489999999999995      46.358000000000004
   315   1                  10.698      55.273000000000003      48.140999999999998
   316   1      12.481000000000002      53.489999999999995      48.140999999999998
   317   1      12.481000000000002      55.273000000000003      46.358000000000004
   318   1                  10.698      53.489999999999995      49.923999999999992
   319   1                  10.698      55.273000000000003      51.707000000000001
   320   1      12.481000000000002      53.489999999999995      51.707000000000001
   321   1      12.481000000000002      55.273000000000003      49.923999999999992
   322   1                  10.698      53.489999999999995      53.489999999999995
   323   1                  10.698      55.273000000000003      55.273000000000003
   324   1      12.481000000000002      53.489999999999995      55.273000000000003
   325   1      12.481000000000002      55.273000000000003      53.489999999999995
   326   1                  10.698      53.489999999999995      57.056000000000012
   327   1                  10.698      55.273000000000003      58.839000000000006
   328   1      12.481000000000002      53.489999999999995      58.839000000000006
   329   1      12.481000000000002      55.273000000000003      57.056000000000012
   330   1                  10.698      53.489999999999995                  60.622
   331   1                  10.698      55.273000000000003      62.405000000000001
   332   1      12.481000000000002      53.489999999999995      62.405000000000001
   333   1      12.481000000000002      55.273000000000003                  60.622
   334   1                  10.698      53.489999999999995      64.188000000000002
   335   1                  10.698      55.273000000000003      65.971000000000004
   336   1      12.481000000000002      53.489999999999995      65.971000000000004
   337   1      12.481000000000002      55.273000000000003      64.188000000000002
   338   1                  10.698      53.489999999999995      67.753999999999991
   339   1                  10.698      55.273000000000003      69.537000000000006
   340   1      12.481000000000002      53.489999999999995      69.537000000000006
   341   1      12.481000000000002      55.273000000000003      67.753999999999991
   342   1                  10.698      53.489999999999995      71.320000000000007
   343   1      12.481000000000002      53.489999999999995      73.103000000000009
   344   1      12.481000000000002      55.273000000000003      71.320000000000007
   345   1      12.481000000000002      57.056000000000012      37.443000000000005
   346   1                  10.698      57.056000000000012      39.225999999999999
   347   1                  10.698      58.839000000000006                  41.009
   348   1      12.481000000000002      57.056000000000012                  41.009
   349   1      12.481000000000002      58.839000000000006      39.225999999999999
   350   1                  10.698      57.056000000000012      42.792000000000002
   351   1                  10.698      58.839000000000006      44.575000000000003
   352   1      12.481000000000002      57.056000000000012      44.575000000000003
   353   1      12.481000000000002      58.839000000000006      42.792000000000002
   354   1                  10.698      57.056000000000012      46.358000000000004
   355   1                  10.698      58.839000000000006      48.140999999999998
   356   1      12.481000000000002      57.056000000000012      48.140999999999998
   357   1      12.481000000000002      58.839000000000006      46.358000000000004
   358   1                  10.698      57.056000000000012      49.923999999999992