model_files/Ni/Ni_30000/Ni_322/data.Ni_322_fcc_30187 (written by ASE) 

30187 	 atoms 
1  atom types
0.0                     107  xlo xhi
0.0                     107  ylo yhi
0.0                     107  zlo zhi


Atoms 

     1   1      1.7600000000000051      51.039999999999992      52.799999999999997
     2   1      1.7600000000000051      52.799999999999997      51.039999999999992
     3   1  7.1054273576010011e-15      52.799999999999997      52.799999999999997
     4   1      1.7600000000000051      52.799999999999997      54.560000000000002
     5   1      1.7600000000000051      54.560000000000002      52.799999999999997
     6   1      5.2800000000000074                      44      52.799999999999997
     7   1      3.5200000000000027      47.519999999999996      51.039999999999992
     8   1      5.2800000000000074      45.760000000000005      51.039999999999992
     9   1      5.2800000000000074      47.519999999999996      49.279999999999994
    10   1      3.5200000000000027      45.760000000000005      52.799999999999997
    11   1      3.5200000000000027      47.519999999999996      54.560000000000002
    12   1      5.2800000000000074      45.760000000000005      54.560000000000002
    13   1      5.2800000000000074      47.519999999999996      52.799999999999997
    14   1      5.2800000000000074      47.519999999999996                   56.32
    15   1      3.5200000000000027      51.039999999999992      47.519999999999996
    16   1      5.2800000000000074      49.279999999999994      47.519999999999996
    17   1      5.2800000000000074      51.039999999999992      45.760000000000005
    18   1      3.5200000000000027      49.279999999999994      49.279999999999994
    19   1      3.5200000000000027      51.039999999999992      51.039999999999992
    20   1      5.2800000000000074      49.279999999999994      51.039999999999992
    21   1      5.2800000000000074      51.039999999999992      49.279999999999994
    22   1      3.5200000000000027      49.279999999999994      52.799999999999997
    23   1      3.5200000000000027      51.039999999999992      54.560000000000002
    24   1      5.2800000000000074      49.279999999999994      54.560000000000002
    25   1      5.2800000000000074      51.039999999999992      52.799999999999997
    26   1      3.5200000000000027      49.279999999999994                   56.32
    27   1      3.5200000000000027      51.039999999999992      58.079999999999998
    28   1      5.2800000000000074      49.279999999999994      58.079999999999998
    29   1      5.2800000000000074      51.039999999999992                   56.32
    30   1      5.2800000000000074      51.039999999999992      59.840000000000003
    31   1      5.2800000000000074      52.799999999999997                      44
    32   1      3.5200000000000027      52.799999999999997      45.760000000000005
    33   1      3.5200000000000027      54.560000000000002      47.519999999999996
    34   1      5.2800000000000074      52.799999999999997      47.519999999999996
    35   1      5.2800000000000074      54.560000000000002      45.760000000000005
    36   1      3.5200000000000027      52.799999999999997      49.279999999999994
    37   1      3.5200000000000027      54.560000000000002      51.039999999999992
    38   1      5.2800000000000074      52.799999999999997      51.039999999999992
    39   1      5.2800000000000074      54.560000000000002      49.279999999999994
    40   1      3.5200000000000027      52.799999999999997      52.799999999999997
    41   1      3.5200000000000027      54.560000000000002      54.560000000000002
    42   1      5.2800000000000074      52.799999999999997      54.560000000000002
    43   1      5.2800000000000074      54.560000000000002      52.799999999999997
    44   1      3.5200000000000027      52.799999999999997                   56.32
    45   1      3.5200000000000027      54.560000000000002      58.079999999999998
    46   1      5.2800000000000074      52.799999999999997      58.079999999999998
    47   1      5.2800000000000074      54.560000000000002                   56.32
    48   1      3.5200000000000027      52.799999999999997      59.840000000000003
    49   1      5.2800000000000074      52.799999999999997      61.600000000000001
    50   1      5.2800000000000074      54.560000000000002      59.840000000000003
    51   1      5.2800000000000074                   56.32      47.519999999999996
    52   1      3.5200000000000027                   56.32      49.279999999999994
    53   1      3.5200000000000027      58.079999999999998      51.039999999999992
    54   1      5.2800000000000074                   56.32      51.039999999999992
    55   1      5.2800000000000074      58.079999999999998      49.279999999999994
    56   1      3.5200000000000027                   56.32      52.799999999999997
    57   1      3.5200000000000027      58.079999999999998      54.560000000000002
    58   1      5.2800000000000074                   56.32      54.560000000000002
    59   1      5.2800000000000074      58.079999999999998      52.799999999999997
    60   1      3.5200000000000027                   56.32                   56.32
    61   1      5.2800000000000074                   56.32      58.079999999999998
    62   1      5.2800000000000074      58.079999999999998                   56.32
    63   1      5.2800000000000074      59.840000000000003      51.039999999999992
    64   1      3.5200000000000027      59.840000000000003      52.799999999999997
    65   1      5.2800000000000074      59.840000000000003      54.560000000000002
    66   1      5.2800000000000074      61.600000000000001      52.799999999999997
    67   1      8.8000000000000025      40.479999999999997      52.799999999999997
    68   1      7.0400000000000054                      44      51.039999999999992
    69   1      8.8000000000000025      42.240000000000002      51.039999999999992
    70   1      8.8000000000000025                      44      49.279999999999994
    71   1      7.0400000000000054      42.240000000000002      52.799999999999997
    72   1      7.0400000000000054                      44      54.560000000000002
    73   1      8.8000000000000025      42.240000000000002      54.560000000000002
    74   1      8.8000000000000025                      44      52.799999999999997
    75   1      8.8000000000000025                      44                   56.32
    76   1      7.0400000000000054      47.519999999999996      47.519999999999996
    77   1      8.8000000000000025      45.760000000000005      47.519999999999996
    78   1      8.8000000000000025      47.519999999999996      45.760000000000005
    79   1      7.0400000000000054      45.760000000000005      49.279999999999994
    80   1      7.0400000000000054      47.519999999999996      51.039999999999992
    81   1      8.8000000000000025      45.760000000000005      51.039999999999992
    82   1      8.8000000000000025      47.519999999999996      49.279999999999994
    83   1      7.0400000000000054      45.760000000000005      52.799999999999997
    84   1      7.0400000000000054      47.519999999999996      54.560000000000002
    85   1      8.8000000000000025      45.760000000000005      54.560000000000002
    86   1      8.8000000000000025      47.519999999999996      52.799999999999997
    87   1      7.0400000000000054      45.760000000000005                   56.32
    88   1      7.0400000000000054      47.519999999999996      58.079999999999998
    89   1      8.8000000000000025      45.760000000000005      58.079999999999998
    90   1      8.8000000000000025      47.519999999999996                   56.32
    91   1      8.8000000000000025      47.519999999999996      59.840000000000003
    92   1      7.0400000000000054      51.039999999999992                      44
    93   1      8.8000000000000025      49.279999999999994                      44
    94   1      8.8000000000000025      51.039999999999992      42.240000000000002
    95   1      7.0400000000000054      49.279999999999994      45.760000000000005
    96   1      7.0400000000000054      51.039999999999992      47.519999999999996
    97   1      8.8000000000000025      49.279999999999994      47.519999999999996
    98   1      8.8000000000000025      51.039999999999992      45.760000000000005
    99   1      7.0400000000000054      49.279999999999994      49.279999999999994
   100   1      7.0400000000000054      51.039999999999992      51.039999999999992
   101   1      8.8000000000000025      49.279999999999994      51.039999999999992
   102   1      8.8000000000000025      51.039999999999992      49.279999999999994
   103   1      7.0400000000000054      49.279999999999994      52.799999999999997
   104   1      7.0400000000000054      51.039999999999992      54.560000000000002
   105   1      8.8000000000000025      49.279999999999994      54.560000000000002
   106   1      8.8000000000000025      51.039999999999992      52.799999999999997
   107   1      7.0400000000000054      49.279999999999994                   56.32
   108   1      7.0400000000000054      51.039999999999992      58.079999999999998
   109   1      8.8000000000000025      49.279999999999994      58.079999999999998
   110   1      8.8000000000000025      51.039999999999992                   56.32
   111   1      7.0400000000000054      49.279999999999994      59.840000000000003
   112   1      7.0400000000000054      51.039999999999992      61.600000000000001
   113   1      8.8000000000000025      49.279999999999994      61.600000000000001
   114   1      8.8000000000000025      51.039999999999992      59.840000000000003
   115   1      8.8000000000000025      51.039999999999992      63.359999999999999
   116   1      8.8000000000000025      52.799999999999997      40.479999999999997
   117   1      7.0400000000000054      52.799999999999997      42.240000000000002
   118   1      7.0400000000000054      54.560000000000002                      44
   119   1      8.8000000000000025      52.799999999999997                      44
   120   1      8.8000000000000025      54.560000000000002      42.240000000000002
   121   1      7.0400000000000054      52.799999999999997      45.760000000000005
   122   1      7.0400000000000054      54.560000000000002      47.519999999999996
   123   1      8.8000000000000025      52.799999999999997      47.519999999999996
   124   1      8.8000000000000025      54.560000000000002      45.760000000000005
   125   1      7.0400000000000054      52.799999999999997      49.279999999999994
   126   1      7.0400000000000054      54.560000000000002      51.039999999999992
   127   1      8.8000000000000025      52.799999999999997      51.039999999999992
   128   1      8.8000000000000025      54.560000000000002      49.279999999999994
   129   1      7.0400000000000054      52.799999999999997      52.799999999999997
   130   1      7.0400000000000054      54.560000000000002      54.560000000000002
   131   1      8.8000000000000025      52.799999999999997      54.560000000000002
   132   1      8.8000000000000025      54.560000000000002      52.799999999999997
   133   1      7.0400000000000054      52.799999999999997                   56.32
   134   1      7.0400000000000054      54.560000000000002      58.079999999999998
   135   1      8.8000000000000025      52.799999999999997      58.079999999999998
   136   1      8.8000000000000025      54.560000000000002                   56.32
   137   1      7.0400000000000054      52.799999999999997      59.840000000000003
   138   1      7.0400000000000054      54.560000000000002      61.600000000000001
   139   1      8.8000000000000025      52.799999999999997      61.600000000000001
   140   1      8.8000000000000025      54.560000000000002      59.840000000000003
   141   1      7.0400000000000054      52.799999999999997      63.359999999999999
   142   1      8.8000000000000025      52.799999999999997       65.11999999999999
   143   1      8.8000000000000025      54.560000000000002      63.359999999999999
   144   1      8.8000000000000025                   56.32                      44
   145   1      7.0400000000000054                   56.32      45.760000000000005
   146   1      7.0400000000000054      58.079999999999998      47.519999999999996
   147   1      8.8000000000000025                   56.32      47.519999999999996
   148   1      8.8000000000000025      58.079999999999998      45.760000000000005
   149   1      7.0400000000000054                   56.32      49.279999999999994
   150   1      7.0400000000000054      58.079999999999998      51.039999999999992
   151   1      8.8000000000000025                   56.32      51.039999999999992
   152   1      8.8000000000000025      58.079999999999998      49.279999999999994
   153   1      7.0400000000000054                   56.32      52.799999999999997
   154   1      7.0400000000000054      58.079999999999998      54.560000000000002
   155   1      8.8000000000000025                   56.32      54.560000000000002
   156   1      8.8000000000000025      58.079999999999998      52.799999999999997
   157   1      7.0400000000000054                   56.32                   56.32
   158   1      7.0400000000000054      58.079999999999998      58.079999999999998
   159   1      8.8000000000000025                   56.32      58.079999999999998
   160   1      8.8000000000000025      58.079999999999998                   56.32
   161   1      7.0400000000000054                   56.32      59.840000000000003
   162   1      8.8000000000000025                   56.32      61.600000000000001
   163   1      8.8000000000000025      58.079999999999998      59.840000000000003
   164   1      8.8000000000000025      59.840000000000003      47.519999999999996
   165   1      7.0400000000000054      59.840000000000003      49.279999999999994
   166   1      7.0400000000000054      61.600000000000001      51.039999999999992
   167   1      8.8000000000000025      59.840000000000003      51.039999999999992
   168   1      8.8000000000000025      61.600000000000001      49.279999999999994
   169   1      7.0400000000000054      59.840000000000003      52.799999999999997
   170   1      7.0400000000000054      61.600000000000001      54.560000000000002
   171   1      8.8000000000000025      59.840000000000003      54.560000000000002
   172   1      8.8000000000000025      61.600000000000001      52.799999999999997
   173   1      7.0400000000000054      59.840000000000003                   56.32
   174   1      8.8000000000000025      59.840000000000003      58.079999999999998
   175   1      8.8000000000000025      61.600000000000001                   56.32
   176   1      8.8000000000000025      63.359999999999999      51.039999999999992
   177   1      7.0400000000000054      63.359999999999999      52.799999999999997
   178   1      8.8000000000000025      63.359999999999999      54.560000000000002
   179   1      8.8000000000000025       65.11999999999999      52.799999999999997
   180   1      12.319999999999999      33.440000000000005      52.799999999999997
   181   1      10.560000000000002      36.960000000000001      51.039999999999992
   182   1      12.319999999999999      35.200000000000003      51.039999999999992
   183   1      12.319999999999999      36.960000000000001      49.279999999999994
   184   1      10.560000000000002      35.200000000000003      52.799999999999997
   185   1      10.560000000000002      36.960000000000001      54.560000000000002
   186   1      12.319999999999999      35.200000000000003      54.560000000000002
   187   1      12.319999999999999      36.960000000000001      52.799999999999997
   188   1      12.319999999999999      36.960000000000001                   56.32
   189   1      10.560000000000002      40.479999999999997      47.519999999999996
   190   1      12.319999999999999      38.719999999999999      47.519999999999996
   191   1      12.319999999999999      40.479999999999997      45.760000000000005
   192   1      10.560000000000002      38.719999999999999      49.279999999999994
   193   1      10.560000000000002      40.479999999999997      51.039999999999992
   194   1      12.319999999999999      38.719999999999999      51.039999999999992
   195   1      12.319999999999999      40.479999999999997      49.279999999999994
   196   1      10.560000000000002      38.719999999999999      52.799999999999997
   197   1      10.560000000000002      40.479999999999997      54.560000000000002
   198   1      12.319999999999999      38.719999999999999      54.560000000000002
   199   1      12.319999999999999      40.479999999999997      52.799999999999997
   200   1      10.560000000000002      38.719999999999999                   56.32
   201   1      10.560000000000002      40.479999999999997      58.079999999999998
   202   1      12.319999999999999      38.719999999999999      58.079999999999998
   203   1      12.319999999999999      40.479999999999997                   56.32
   204   1      12.319999999999999      40.479999999999997      59.840000000000003
   205   1      10.560000000000002                      44                      44
   206   1      12.319999999999999      42.240000000000002                      44
   207   1      12.319999999999999                      44      42.240000000000002
   208   1      10.560000000000002      42.240000000000002      45.760000000000005
   209   1      10.560000000000002                      44      47.519999999999996
   210   1      12.319999999999999      42.240000000000002      47.519999999999996
   211   1      12.319999999999999                      44      45.760000000000005
   212   1      10.560000000000002      42.240000000000002      49.279999999999994
   213   1      10.560000000000002                      44      51.039999999999992
   214   1      12.319999999999999      42.240000000000002      51.039999999999992
   215   1      12.319999999999999                      44      49.279999999999994
   216   1      10.560000000000002      42.240000000000002      52.799999999999997
   217   1      10.560000000000002                      44      54.560000000000002
   218   1      12.319999999999999      42.240000000000002      54.560000000000002
   219   1      12.319999999999999                      44      52.799999999999997
   220   1      10.560000000000002      42.240000000000002                   56.32
   221   1      10.560000000000002                      44      58.079999999999998
   222   1      12.319999999999999      42.240000000000002      58.079999999999998
   223   1      12.319999999999999                      44                   56.32
   224   1      10.560000000000002      42.240000000000002      59.840000000000003
   225   1      10.560000000000002                      44      61.600000000000001
   226   1      12.319999999999999      42.240000000000002      61.600000000000001
   227   1      12.319999999999999                      44      59.840000000000003
   228   1      12.319999999999999                      44      63.359999999999999
   229   1      10.560000000000002      47.519999999999996      40.479999999999997
   230   1      12.319999999999999      45.760000000000005      40.479999999999997
   231   1      12.319999999999999      47.519999999999996      38.719999999999999
   232   1      10.560000000000002      45.760000000000005      42.240000000000002
   233   1      10.560000000000002      47.519999999999996                      44
   234   1      12.319999999999999      45.760000000000005                      44
   235   1      12.319999999999999      47.519999999999996      42.240000000000002
   236   1      10.560000000000002      45.760000000000005      45.760000000000005
   237   1      10.560000000000002      47.519999999999996      47.519999999999996
   238   1      12.319999999999999      45.760000000000005      47.519999999999996
   239   1      12.319999999999999      47.519999999999996      45.760000000000005
   240   1      10.560000000000002      45.760000000000005      49.279999999999994
   241   1      10.560000000000002      47.519999999999996      51.039999999999992
   242   1      12.319999999999999      45.760000000000005      51.039999999999992
   243   1      12.319999999999999      47.519999999999996      49.279999999999994
   244   1      10.560000000000002      45.760000000000005      52.799999999999997
   245   1      10.560000000000002      47.519999999999996      54.560000000000002
   246   1      12.319999999999999      45.760000000000005      54.560000000000002
   247   1      12.319999999999999      47.519999999999996      52.799999999999997
   248   1      10.560000000000002      45.760000000000005                   56.32
   249   1      10.560000000000002      47.519999999999996      58.079999999999998
   250   1      12.319999999999999      45.760000000000005      58.079999999999998
   251   1      12.319999999999999      47.519999999999996                   56.32
   252   1      10.560000000000002      45.760000000000005      59.840000000000003
   253   1      10.560000000000002      47.519999999999996      61.600000000000001
   254   1      12.319999999999999      45.760000000000005      61.600000000000001
   255   1      12.319999999999999      47.519999999999996      59.840000000000003
   256   1      10.560000000000002      45.760000000000005      63.359999999999999
   257   1      10.560000000000002      47.519999999999996       65.11999999999999
   258   1      12.319999999999999      45.760000000000005       65.11999999999999
   259   1      12.319999999999999      47.519999999999996      63.359999999999999
   260   1      12.319999999999999      47.519999999999996       66.88000000000001
   261   1      10.560000000000002      51.039999999999992      36.960000000000001
   262   1      12.319999999999999      49.279999999999994      36.960000000000001
   263   1      12.319999999999999      51.039999999999992      35.200000000000003
   264   1      10.560000000000002      49.279999999999994      38.719999999999999
   265   1      10.560000000000002      51.039999999999992      40.479999999999997
   266   1      12.319999999999999      49.279999999999994      40.479999999999997
   267   1      12.319999999999999      51.039999999999992      38.719999999999999
   268   1      10.560000000000002      49.279999999999994      42.240000000000002
   269   1      10.560000000000002      51.039999999999992                      44
   270   1      12.319999999999999      49.279999999999994                      44
   271   1      12.319999999999999      51.039999999999992      42.240000000000002
   272   1      10.560000000000002      49.279999999999994      45.760000000000005
   273   1      10.560000000000002      51.039999999999992      47.519999999999996
   274   1      12.319999999999999      49.279999999999994      47.519999999999996
   275   1      12.319999999999999      51.039999999999992      45.760000000000005
   276   1      10.560000000000002      49.279999999999994      49.279999999999994
   277   1      10.560000000000002      51.039999999999992      51.039999999999992
   278   1      12.319999999999999      49.279999999999994      51.039999999999992
   279   1      12.319999999999999      51.039999999999992      49.279999999999994
   280   1      10.560000000000002      49.279999999999994      52.799999999999997
   281   1      10.560000000000002      51.039999999999992      54.560000000000002
   282   1      12.319999999999999      49.279999999999994      54.560000000000002
   283   1      12.319999999999999      51.039999999999992      52.799999999999997
   284   1      10.560000000000002      49.279999999999994                   56.32
   285   1      10.560000000000002      51.039999999999992      58.079999999999998
   286   1      12.319999999999999      49.279999999999994      58.079999999999998
   287   1      12.319999999999999      51.039999999999992                   56.32
   288   1      10.560000000000002      49.279999999999994      59.840000000000003
   289   1      10.560000000000002      51.039999999999992      61.600000000000001
   290   1      12.319999999999999      49.279999999999994      61.600000000000001
   291   1      12.319999999999999      51.039999999999992      59.840000000000003
   292   1      10.560000000000002      49.279999999999994      63.359999999999999
   293   1      10.560000000000002      51.039999999999992       65.11999999999999
   294   1      12.319999999999999      49.279999999999994       65.11999999999999
   295   1      12.319999999999999      51.039999999999992      63.359999999999999
   296   1      10.560000000000002      49.279999999999994       66.88000000000001
   297   1      10.560000000000002      51.039999999999992      68.640000000000015
   298   1      12.319999999999999      49.279999999999994      68.640000000000015
   299   1      12.319999999999999      51.039999999999992       66.88000000000001
   300   1      12.319999999999999      51.039999999999992      70.400000000000006
   301   1      12.319999999999999      52.799999999999997      33.440000000000005
   302   1      10.560000000000002      52.799999999999997      35.200000000000003
   303   1      10.560000000000002      54.560000000000002      36.960000000000001
   304   1      12.319999999999999      52.799999999999997      36.960000000000001
   305   1      12.319999999999999      54.560000000000002      35.200000000000003
   306   1      10.560000000000002      52.799999999999997      38.719999999999999
   307   1      10.560000000000002      54.560000000000002      40.479999999999997
   308   1      12.319999999999999      52.799999999999997      40.479999999999997
   309   1      12.319999999999999      54.560000000000002      38.719999999999999
   310   1      10.560000000000002      52.799999999999997      42.240000000000002
   311   1      10.560000000000002      54.560000000000002                      44
   312   1      12.319999999999999      52.799999999999997                      44
   313   1      12.319999999999999      54.560000000000002      42.240000000000002
   314   1      10.560000000000002      52.799999999999997      45.760000000000005
   315   1      10.560000000000002      54.560000000000002      47.519999999999996
   316   1      12.319999999999999      52.799999999999997      47.519999999999996
   317   1      12.319999999999999      54.560000000000002      45.760000000000005
   318   1      10.560000000000002      52.799999999999997      49.279999999999994
   319   1      10.560000000000002      54.560000000000002      51.039999999999992
   320   1      12.319999999999999      52.799999999999997      51.039999999999992
   321   1      12.319999999999999      54.560000000000002      49.279999999999994
   322   1      10.560000000000002      52.799999999999997      52.799999999999997
   323   1      10.560000000000002      54.560000000000002      54.560000000000002
   324   1      12.319999999999999      52.799999999999997      54.560000000000002
   325   1      12.319999999999999      54.560000000000002      52.799999999999997
   326   1      10.560000000000002      52.799999999999997                   56.32
   327   1      10.560000000000002      54.560000000000002      58.079999999999998
   328   1      12.319999999999999      52.799999999999997      58.079999999999998
   329   1      12.319999999999999      54.560000000000002                   56.32
   330   1      10.560000000000002      52.799999999999997      59.840000000000003
   331   1      10.560000000000002      54.560000000000002      61.600000000000001
   332   1      12.319999999999999      52.799999999999997      61.600000000000001
   333   1      12.319999999999999      54.560000000000002      59.840000000000003
   334   1      10.560000000000002      52.799999999999997      63.359999999999999
   335   1      10.560000000000002      54.560000000000002       65.11999999999999
   336   1      12.319999999999999      52.799999999999997       65.11999999999999
   337   1      12.319999999999999      54.560000000000002      63.359999999999999
   338   1      10.560000000000002      52.799999999999997       66.88000000000001
   339   1      10.560000000000002      54.560000000000002      68.640000000000015
   340   1      12.319999999999999      52.799999999999997      68.640000000000015
   341   1      12.319999999999999      54.560000000000002       66.88000000000001
   342   1      10.560000000000002      52.799999999999997      70.400000000000006
   343   1      12.319999999999999      52.799999999999997      72.160000000000011
   344   1      12.319999999999999      54.560000000000002      70.400000000000006
   345   1      12.319999999999999                   56.32      36.960000000000001
   346   1      10.560000000000002                   56.32      38.719999999999999
   347   1      10.560000000000002      58.079999999999998      40.479999999999997
   348   1      12.319999999999999                   56.32      40.479999999999997
   349   1      12.319999999999999      58.079999999999998      38.719999999999999
   350   1      10.560000000000002                   56.32      42.240000000000002
   351   1      10.560000000000002      58.079999999999998                      44
   352   1      12.319999999999999                   56.32                      44
   353   1      12.319999999999999      58.079999999999998      42.240000000000002
   354   1      10.560000000000002                   56.32      45.760000000000005
   355   1      10.560000000000002      58.079999999999998      47.519999999999996
   356   1      12.319999999999999                   56.32      47.519999999999996
   357   1      12.319999999999999      58.079999999999998      45.760000000000005
   358   1      10.560000000000002                   56.32      49.279999999999994