model_files/PtNi/PtNi_30000/PtNi_531/PtNi_531_fcc_29859_temp.data (written by ASE) 

29859 	 atoms 
2  atom types
0.0                     105  xlo xhi
0.0                     105  ylo yhi
0.0                     105  zlo zhi


Atoms 

     1   1      104.99999999999999      49.789999999999999      51.704999999999998
     2   1      104.99999999999999      51.704999999999998      49.789999999999999
     3   1      104.99999999999999      51.704999999999998      53.620000000000005
     4   1      104.99999999999999      53.620000000000005      51.704999999999998
     5   1      3.8299999999999916      44.044999999999995      49.789999999999999
     6   1      3.8299999999999916      45.959999999999994                  47.875
     7   1      3.8299999999999916      44.044999999999995      53.620000000000005
     8   1      3.8299999999999916      45.959999999999994      51.704999999999998
     9   1      3.8299999999999916      45.959999999999994      55.534999999999997
    10   1      3.8299999999999916                  47.875      45.959999999999994
    11   1      3.8299999999999916      49.789999999999999      44.044999999999995
    12   1      1.9149999999999923                  47.875                  47.875
    13   1      1.9149999999999923      49.789999999999999      49.789999999999999
    14   1      3.8299999999999916                  47.875      49.789999999999999
    15   1      3.8299999999999916      49.789999999999999                  47.875
    16   1      1.9149999999999923                  47.875      51.704999999999998
    17   1      1.9149999999999923      49.789999999999999      53.620000000000005
    18   1      3.8299999999999916                  47.875      53.620000000000005
    19   1      3.8299999999999916      49.789999999999999      51.704999999999998
    20   1      1.9149999999999923                  47.875      55.534999999999997
    21   1      3.8299999999999916                  47.875      57.450000000000003
    22   1      3.8299999999999916      49.789999999999999      55.534999999999997
    23   1      3.8299999999999916      49.789999999999999      59.365000000000002
    24   1      3.8299999999999916      51.704999999999998      45.959999999999994
    25   1      3.8299999999999916      53.620000000000005      44.044999999999995
    26   1      1.9149999999999923      51.704999999999998                  47.875
    27   1      1.9149999999999923      53.620000000000005      49.789999999999999
    28   1      3.8299999999999916      51.704999999999998      49.789999999999999
    29   1      3.8299999999999916      53.620000000000005                  47.875
    30   1      1.9149999999999923      51.704999999999998      51.704999999999998
    31   1      1.9149999999999923      53.620000000000005      53.620000000000005
    32   1      3.8299999999999916      51.704999999999998      53.620000000000005
    33   1      3.8299999999999916      53.620000000000005      51.704999999999998
    34   1      1.9149999999999923      51.704999999999998      55.534999999999997
    35   1      3.8299999999999916      51.704999999999998      57.450000000000003
    36   1      3.8299999999999916      53.620000000000005      55.534999999999997
    37   1      3.8299999999999916      53.620000000000005      59.365000000000002
    38   1      3.8299999999999916      55.534999999999997      45.959999999999994
    39   1      1.9149999999999923      55.534999999999997                  47.875
    40   1      3.8299999999999916      55.534999999999997      49.789999999999999
    41   1      3.8299999999999916      57.450000000000003                  47.875
    42   1      1.9149999999999923      55.534999999999997      51.704999999999998
    43   1      3.8299999999999916      55.534999999999997      53.620000000000005
    44   1      3.8299999999999916      57.450000000000003      51.704999999999998
    45   1      1.9149999999999923      55.534999999999997      55.534999999999997
    46   1      3.8299999999999916      55.534999999999997      57.450000000000003
    47   1      3.8299999999999916      57.450000000000003      55.534999999999997
    48   1      3.8299999999999916      59.365000000000002      49.789999999999999
    49   1      3.8299999999999916      59.365000000000002      53.620000000000005
    50   1      7.6599999999999966       38.29999999999999                  47.875
    51   1      7.6599999999999966       38.29999999999999      51.704999999999998
    52   1      7.6599999999999966       38.29999999999999      55.534999999999997
    53   1      7.6599999999999966      40.215000000000003      42.129999999999995
    54   1      7.6599999999999966      42.129999999999995      40.215000000000003
    55   1      5.7449999999999903      42.129999999999995      45.959999999999994
    56   1      7.6599999999999966      40.215000000000003      45.959999999999994
    57   1      7.6599999999999966      42.129999999999995      44.044999999999995
    58   1      5.7449999999999903      42.129999999999995      49.789999999999999
    59   1      7.6599999999999966      40.215000000000003      49.789999999999999
    60   1      7.6599999999999966      42.129999999999995                  47.875
    61   1      5.7449999999999903      40.215000000000003      51.704999999999998
    62   1      5.7449999999999903      42.129999999999995      53.620000000000005
    63   1      7.6599999999999966      40.215000000000003      53.620000000000005
    64   1      7.6599999999999966      42.129999999999995      51.704999999999998
    65   1      5.7449999999999903      42.129999999999995      57.450000000000003
    66   1      7.6599999999999966      40.215000000000003      57.450000000000003
    67   1      7.6599999999999966      42.129999999999995      55.534999999999997
    68   1      7.6599999999999966      40.215000000000003      61.279999999999994
    69   1      7.6599999999999966      42.129999999999995      59.365000000000002
    70   1      7.6599999999999966      42.129999999999995                  63.195
    71   1      5.7449999999999903      45.959999999999994      42.129999999999995
    72   1      7.6599999999999966      44.044999999999995      42.129999999999995
    73   1      7.6599999999999966      45.959999999999994      40.215000000000003
    74   1      5.7449999999999903      44.044999999999995      44.044999999999995
    75   1      5.7449999999999903      45.959999999999994      45.959999999999994
    76   1      7.6599999999999966      44.044999999999995      45.959999999999994
    77   1      7.6599999999999966      45.959999999999994      44.044999999999995
    78   1      5.7449999999999903      44.044999999999995                  47.875
    79   1      5.7449999999999903      45.959999999999994      49.789999999999999
    80   1      7.6599999999999966      44.044999999999995      49.789999999999999
    81   1      7.6599999999999966      45.959999999999994                  47.875
    82   1      5.7449999999999903      44.044999999999995      51.704999999999998
    83   1      5.7449999999999903      45.959999999999994      53.620000000000005
    84   1      7.6599999999999966      44.044999999999995      53.620000000000005
    85   1      7.6599999999999966      45.959999999999994      51.704999999999998
    86   1      5.7449999999999903      44.044999999999995      55.534999999999997
    87   1      5.7449999999999903      45.959999999999994      57.450000000000003
    88   1      7.6599999999999966      44.044999999999995      57.450000000000003
    89   1      7.6599999999999966      45.959999999999994      55.534999999999997
    90   1      5.7449999999999903      44.044999999999995      59.365000000000002
    91   1      5.7449999999999903      45.959999999999994      61.279999999999994
    92   1      7.6599999999999966      44.044999999999995      61.279999999999994
    93   1      7.6599999999999966      45.959999999999994      59.365000000000002
    94   1      7.6599999999999966      45.959999999999994                  63.195
    95   1      7.6599999999999966                  47.875       38.29999999999999
    96   1      5.7449999999999903      49.789999999999999      42.129999999999995
    97   1      7.6599999999999966                  47.875      42.129999999999995
    98   1      7.6599999999999966      49.789999999999999      40.215000000000003
    99   1      5.7449999999999903                  47.875      44.044999999999995
   100   1      5.7449999999999903      49.789999999999999      45.959999999999994
   101   1      7.6599999999999966                  47.875      45.959999999999994
   102   1      7.6599999999999966      49.789999999999999      44.044999999999995
   103   1      5.7449999999999903                  47.875                  47.875
   104   1      5.7449999999999903      49.789999999999999      49.789999999999999
   105   1      7.6599999999999966                  47.875      49.789999999999999
   106   1      7.6599999999999966      49.789999999999999                  47.875
   107   1      5.7449999999999903                  47.875      51.704999999999998
   108   1      5.7449999999999903      49.789999999999999      53.620000000000005
   109   1      7.6599999999999966                  47.875      53.620000000000005
   110   1      7.6599999999999966      49.789999999999999      51.704999999999998
   111   1      5.7449999999999903                  47.875      55.534999999999997
   112   1      5.7449999999999903      49.789999999999999      57.450000000000003
   113   1      7.6599999999999966                  47.875      57.450000000000003
   114   1      7.6599999999999966      49.789999999999999      55.534999999999997
   115   1      5.7449999999999903                  47.875      59.365000000000002
   116   1      5.7449999999999903      49.789999999999999      61.279999999999994
   117   1      7.6599999999999966                  47.875      61.279999999999994
   118   1      7.6599999999999966      49.789999999999999      59.365000000000002
   119   1      7.6599999999999966                  47.875      65.109999999999999
   120   1      7.6599999999999966      49.789999999999999                  63.195
   121   1      7.6599999999999966      51.704999999999998       38.29999999999999
   122   1      5.7449999999999903      51.704999999999998      40.215000000000003
   123   1      5.7449999999999903      53.620000000000005      42.129999999999995
   124   1      7.6599999999999966      51.704999999999998      42.129999999999995
   125   1      7.6599999999999966      53.620000000000005      40.215000000000003
   126   1      5.7449999999999903      51.704999999999998      44.044999999999995
   127   1      5.7449999999999903      53.620000000000005      45.959999999999994
   128   1      7.6599999999999966      51.704999999999998      45.959999999999994
   129   1      7.6599999999999966      53.620000000000005      44.044999999999995
   130   1      5.7449999999999903      51.704999999999998                  47.875
   131   1      5.7449999999999903      53.620000000000005      49.789999999999999
   132   1      7.6599999999999966      51.704999999999998      49.789999999999999
   133   1      7.6599999999999966      53.620000000000005                  47.875
   134   1      5.7449999999999903      51.704999999999998      51.704999999999998
   135   1      5.7449999999999903      53.620000000000005      53.620000000000005
   136   1      7.6599999999999966      51.704999999999998      53.620000000000005
   137   1      7.6599999999999966      53.620000000000005      51.704999999999998
   138   1      5.7449999999999903      51.704999999999998      55.534999999999997
   139   1      5.7449999999999903      53.620000000000005      57.450000000000003
   140   1      7.6599999999999966      51.704999999999998      57.450000000000003
   141   1      7.6599999999999966      53.620000000000005      55.534999999999997
   142   1      5.7449999999999903      51.704999999999998      59.365000000000002
   143   1      5.7449999999999903      53.620000000000005      61.279999999999994
   144   1      7.6599999999999966      51.704999999999998      61.279999999999994
   145   1      7.6599999999999966      53.620000000000005      59.365000000000002
   146   1      5.7449999999999903      51.704999999999998                  63.195
   147   1      7.6599999999999966      51.704999999999998      65.109999999999999
   148   1      7.6599999999999966      53.620000000000005                  63.195
   149   1      7.6599999999999966      55.534999999999997       38.29999999999999
   150   1      5.7449999999999903      57.450000000000003      42.129999999999995
   151   1      7.6599999999999966      55.534999999999997      42.129999999999995
   152   1      7.6599999999999966      57.450000000000003      40.215000000000003
   153   1      5.7449999999999903      55.534999999999997      44.044999999999995
   154   1      5.7449999999999903      57.450000000000003      45.959999999999994
   155   1      7.6599999999999966      55.534999999999997      45.959999999999994
   156   1      7.6599999999999966      57.450000000000003      44.044999999999995
   157   1      5.7449999999999903      55.534999999999997                  47.875
   158   1      5.7449999999999903      57.450000000000003      49.789999999999999
   159   1      7.6599999999999966      55.534999999999997      49.789999999999999
   160   1      7.6599999999999966      57.450000000000003                  47.875
   161   1      5.7449999999999903      55.534999999999997      51.704999999999998
   162   1      5.7449999999999903      57.450000000000003      53.620000000000005
   163   1      7.6599999999999966      55.534999999999997      53.620000000000005
   164   1      7.6599999999999966      57.450000000000003      51.704999999999998
   165   1      5.7449999999999903      55.534999999999997      55.534999999999997
   166   1      5.7449999999999903      57.450000000000003      57.450000000000003
   167   1      7.6599999999999966      55.534999999999997      57.450000000000003
   168   1      7.6599999999999966      57.450000000000003      55.534999999999997
   169   1      5.7449999999999903      55.534999999999997      59.365000000000002
   170   1      5.7449999999999903      57.450000000000003      61.279999999999994
   171   1      7.6599999999999966      55.534999999999997      61.279999999999994
   172   1      7.6599999999999966      57.450000000000003      59.365000000000002
   173   1      7.6599999999999966      55.534999999999997      65.109999999999999
   174   1      7.6599999999999966      57.450000000000003                  63.195
   175   1      7.6599999999999966      59.365000000000002      42.129999999999995
   176   1      7.6599999999999966      61.279999999999994      40.215000000000003
   177   1      5.7449999999999903      59.365000000000002      44.044999999999995
   178   1      5.7449999999999903      61.279999999999994      45.959999999999994
   179   1      7.6599999999999966      59.365000000000002      45.959999999999994
   180   1      7.6599999999999966      61.279999999999994      44.044999999999995
   181   1      5.7449999999999903      59.365000000000002                  47.875
   182   1      5.7449999999999903      61.279999999999994      49.789999999999999
   183   1      7.6599999999999966      59.365000000000002      49.789999999999999
   184   1      7.6599999999999966      61.279999999999994                  47.875
   185   1      5.7449999999999903      59.365000000000002      51.704999999999998
   186   1      5.7449999999999903      61.279999999999994      53.620000000000005
   187   1      7.6599999999999966      59.365000000000002      53.620000000000005
   188   1      7.6599999999999966      61.279999999999994      51.704999999999998
   189   1      5.7449999999999903      59.365000000000002      55.534999999999997
   190   1      5.7449999999999903      61.279999999999994      57.450000000000003
   191   1      7.6599999999999966      59.365000000000002      57.450000000000003
   192   1      7.6599999999999966      61.279999999999994      55.534999999999997
   193   1      5.7449999999999903      59.365000000000002      59.365000000000002
   194   1      7.6599999999999966      59.365000000000002      61.279999999999994
   195   1      7.6599999999999966      61.279999999999994      59.365000000000002
   196   1      7.6599999999999966      61.279999999999994                  63.195
   197   1      7.6599999999999966                  63.195      42.129999999999995
   198   1      7.6599999999999966                  63.195      45.959999999999994
   199   1      7.6599999999999966                  63.195      49.789999999999999
   200   1      7.6599999999999966      65.109999999999999                  47.875
   201   1      5.7449999999999903                  63.195      51.704999999999998
   202   1      7.6599999999999966                  63.195      53.620000000000005
   203   1      7.6599999999999966      65.109999999999999      51.704999999999998
   204   1      7.6599999999999966                  63.195      57.450000000000003
   205   1      7.6599999999999966      65.109999999999999      55.534999999999997
   206   1      7.6599999999999966                  63.195      61.279999999999994
   207   1      11.489999999999997      30.639999999999997      51.704999999999998
   208   1      11.489999999999997      34.469999999999992      40.215000000000003
   209   1      11.489999999999997                  32.555      45.959999999999994
   210   1      11.489999999999997      34.469999999999992      44.044999999999995
   211   1      9.5749999999999957      34.469999999999992      49.789999999999999
   212   1      11.489999999999997                  32.555      49.789999999999999
   213   1      11.489999999999997      34.469999999999992                  47.875
   214   1      9.5749999999999957      34.469999999999992      53.620000000000005
   215   1      11.489999999999997                  32.555      53.620000000000005
   216   1      11.489999999999997      34.469999999999992      51.704999999999998
   217   1      11.489999999999997                  32.555      57.450000000000003
   218   1      11.489999999999997      34.469999999999992      55.534999999999997
   219   1      11.489999999999997      34.469999999999992      59.365000000000002
   220   1      11.489999999999997      34.469999999999992                  63.195
   221   1      9.5749999999999957       38.29999999999999       38.29999999999999
   222   1      11.489999999999997      36.384999999999991       38.29999999999999
   223   1      11.489999999999997       38.29999999999999      36.384999999999991
   224   1      9.5749999999999957       38.29999999999999      42.129999999999995
   225   1      11.489999999999997      36.384999999999991      42.129999999999995
   226   1      11.489999999999997       38.29999999999999      40.215000000000003
   227   1      9.5749999999999957      36.384999999999991      44.044999999999995
   228   1      9.5749999999999957       38.29999999999999      45.959999999999994
   229   1      11.489999999999997      36.384999999999991      45.959999999999994
   230   1      11.489999999999997       38.29999999999999      44.044999999999995
   231   1      9.5749999999999957      36.384999999999991                  47.875
   232   1      9.5749999999999957       38.29999999999999      49.789999999999999
   233   1      11.489999999999997      36.384999999999991      49.789999999999999
   234   1      11.489999999999997       38.29999999999999                  47.875
   235   1      9.5749999999999957      36.384999999999991      51.704999999999998
   236   1      9.5749999999999957       38.29999999999999      53.620000000000005
   237   1      11.489999999999997      36.384999999999991      53.620000000000005
   238   1      11.489999999999997       38.29999999999999      51.704999999999998
   239   1      9.5749999999999957      36.384999999999991      55.534999999999997
   240   1      9.5749999999999957       38.29999999999999      57.450000000000003
   241   1      11.489999999999997      36.384999999999991      57.450000000000003
   242   1      11.489999999999997       38.29999999999999      55.534999999999997
   243   1      9.5749999999999957      36.384999999999991      59.365000000000002
   244   1      9.5749999999999957       38.29999999999999      61.279999999999994
   245   1      11.489999999999997      36.384999999999991      61.279999999999994
   246   1      11.489999999999997       38.29999999999999      59.365000000000002
   247   1      9.5749999999999957       38.29999999999999      65.109999999999999
   248   1      11.489999999999997      36.384999999999991      65.109999999999999
   249   1      11.489999999999997       38.29999999999999                  63.195
   250   1      11.489999999999997       38.29999999999999      67.024999999999991
   251   1      11.489999999999997      40.215000000000003      34.469999999999992
   252   1      9.5749999999999957      42.129999999999995       38.29999999999999
   253   1      11.489999999999997      40.215000000000003       38.29999999999999
   254   1      11.489999999999997      42.129999999999995      36.384999999999991
   255   1      9.5749999999999957      40.215000000000003      40.215000000000003
   256   1      9.5749999999999957      42.129999999999995      42.129999999999995
   257   1      11.489999999999997      40.215000000000003      42.129999999999995
   258   1      11.489999999999997      42.129999999999995      40.215000000000003
   259   1      9.5749999999999957      40.215000000000003      44.044999999999995
   260   1      9.5749999999999957      42.129999999999995      45.959999999999994
   261   1      11.489999999999997      40.215000000000003      45.959999999999994
   262   1      11.489999999999997      42.129999999999995      44.044999999999995
   263   1      9.5749999999999957      40.215000000000003                  47.875
   264   1      9.5749999999999957      42.129999999999995      49.789999999999999
   265   1      11.489999999999997      40.215000000000003      49.789999999999999
   266   1      11.489999999999997      42.129999999999995                  47.875
   267   1      9.5749999999999957      40.215000000000003      51.704999999999998
   268   1      9.5749999999999957      42.129999999999995      53.620000000000005
   269   1      11.489999999999997      40.215000000000003      53.620000000000005
   270   1      11.489999999999997      42.129999999999995      51.704999999999998
   271   1      9.5749999999999957      40.215000000000003      55.534999999999997
   272   1      9.5749999999999957      42.129999999999995      57.450000000000003
   273   1      11.489999999999997      40.215000000000003      57.450000000000003
   274   1      11.489999999999997      42.129999999999995      55.534999999999997
   275   1      9.5749999999999957      40.215000000000003      59.365000000000002
   276   1      9.5749999999999957      42.129999999999995      61.279999999999994
   277   1      11.489999999999997      40.215000000000003      61.279999999999994
   278   1      11.489999999999997      42.129999999999995      59.365000000000002
   279   1      9.5749999999999957      40.215000000000003                  63.195
   280   1      9.5749999999999957      42.129999999999995      65.109999999999999
   281   1      11.489999999999997      40.215000000000003      65.109999999999999
   282   1      11.489999999999997      42.129999999999995                  63.195
   283   1      11.489999999999997      40.215000000000003      68.939999999999998
   284   1      11.489999999999997      42.129999999999995      67.024999999999991
   285   1      11.489999999999997      44.044999999999995      34.469999999999992
   286   1      11.489999999999997      45.959999999999994                  32.555
   287   1      9.5749999999999957      44.044999999999995      36.384999999999991
   288   1      9.5749999999999957      45.959999999999994       38.29999999999999
   289   1      11.489999999999997      44.044999999999995       38.29999999999999
   290   1      11.489999999999997      45.959999999999994      36.384999999999991
   291   1      9.5749999999999957      44.044999999999995      40.215000000000003
   292   1      9.5749999999999957      45.959999999999994      42.129999999999995
   293   1      11.489999999999997      44.044999999999995      42.129999999999995
   294   1      11.489999999999997      45.959999999999994      40.215000000000003
   295   1      9.5749999999999957      44.044999999999995      44.044999999999995
   296   1      9.5749999999999957      45.959999999999994      45.959999999999994
   297   1      11.489999999999997      44.044999999999995      45.959999999999994
   298   1      11.489999999999997      45.959999999999994      44.044999999999995
   299   1      9.5749999999999957      44.044999999999995                  47.875
   300   1      9.5749999999999957      45.959999999999994      49.789999999999999
   301   1      11.489999999999997      44.044999999999995      49.789999999999999
   302   1      11.489999999999997      45.959999999999994                  47.875
   303   1      9.5749999999999957      44.044999999999995      51.704999999999998
   304   1      9.5749999999999957      45.959999999999994      53.620000000000005
   305   1      11.489999999999997      44.044999999999995      53.620000000000005
   306   1      11.489999999999997      45.959999999999994      51.704999999999998
   307   1      9.5749999999999957      44.044999999999995      55.534999999999997
   308   1      9.5749999999999957      45.959999999999994      57.450000000000003
   309   1      11.489999999999997      44.044999999999995      57.450000000000003
   310   1      11.489999999999997      45.959999999999994      55.534999999999997
   311   1      9.5749999999999957      44.044999999999995      59.365000000000002
   312   1      9.5749999999999957      45.959999999999994      61.279999999999994
   313   1      11.489999999999997      44.044999999999995      61.279999999999994
   314   1      11.489999999999997      45.959999999999994      59.365000000000002
   315   1      9.5749999999999957      44.044999999999995                  63.195
   316   1      9.5749999999999957      45.959999999999994      65.109999999999999
   317   1      11.489999999999997      44.044999999999995      65.109999999999999
   318   1      11.489999999999997      45.959999999999994                  63.195
   319   1      9.5749999999999957      44.044999999999995      67.024999999999991
   320   1      11.489999999999997      44.044999999999995      68.939999999999998
   321   1      11.489999999999997      45.959999999999994      67.024999999999991
   322   1      11.489999999999997      45.959999999999994       70.85499999999999
   323   1      9.5749999999999957      49.789999999999999      34.469999999999992
   324   1      11.489999999999997                  47.875      34.469999999999992
   325   1      11.489999999999997      49.789999999999999                  32.555
   326   1      9.5749999999999957                  47.875      36.384999999999991
   327   1      9.5749999999999957      49.789999999999999       38.29999999999999
   328   1      11.489999999999997                  47.875       38.29999999999999
   329   1      11.489999999999997      49.789999999999999      36.384999999999991
   330   1      9.5749999999999957                  47.875      40.215000000000003
   331   1      9.5749999999999957      49.789999999999999      42.129999999999995
   332   1      11.489999999999997                  47.875      42.129999999999995
   333   1      11.489999999999997      49.789999999999999      40.215000000000003
   334   1      9.5749999999999957                  47.875      44.044999999999995
   335   1      9.5749999999999957      49.789999999999999      45.959999999999994
   336   1      11.489999999999997                  47.875      45.959999999999994
   337   1      11.489999999999997      49.789999999999999      44.044999999999995
   338   1      9.5749999999999957                  47.875                  47.875
   339   1      9.5749999999999957      49.789999999999999      49.789999999999999
   340   1      11.489999999999997                  47.875      49.789999999999999
   341   1      11.489999999999997      49.789999999999999                  47.875
   342   1      9.5749999999999957                  47.875      51.704999999999998
   343   1      9.5749999999999957      49.789999999999999      53.620000000000005
   344   1      11.489999999999997                  47.875      53.620000000000005
   345   1      11.489999999999997      49.789999999999999      51.704999999999998
   346   1      9.5749999999999957                  47.875      55.534999999999997
   347   1      9.5749999999999957      49.789999999999999      57.450000000000003
   348   1      11.489999999999997                  47.875      57.450000000000003
   349   1      11.489999999999997      49.789999999999999      55.534999999999997
   350   1      9.5749999999999957                  47.875      59.365000000000002
   351   1      9.5749999999999957      49.789999999999999      61.279999999999994
   352   1      11.489999999999997                  47.875      61.279999999999994
   353   1      11.489999999999997      49.789999999999999      59.365000000000002
   354   1      9.5749999999999957                  47.875                  63.195
   355   1      9.5749999999999957      49.789999999999999      65.109999999999999
   356   1      11.489999999999997                  47.875      65.109999999999999
   357   1      11.489999999999997      49.789999999999999                  63.195
   358   1      9.5749999999999957                  47.875      67.024999999999991