model_files/Ag/Ag_30000/Ag_320/data.Ag_320_fcc_29879 (written by ASE) 

29879 	 atoms 
1  atom types
0.0                     106  xlo xhi
0.0                     106  ylo yhi
0.0                     106  zlo zhi


Atoms 

     1   1      2.0449999999999946      47.034999999999997      49.079999999999998
     2   1      2.0449999999999946      47.034999999999997      53.169999999999995
     3   1      2.0449999999999946      47.034999999999997      57.259999999999991
     4   1      2.0449999999999946      49.079999999999998      47.034999999999997
     5   1      105.99999999999999      49.079999999999998      49.079999999999998
     6   1      105.99999999999999      51.124999999999993      51.124999999999993
     7   1      2.0449999999999946      49.079999999999998      51.124999999999993
     8   1      2.0449999999999946      51.124999999999993      49.079999999999998
     9   1      105.99999999999999      49.079999999999998      53.169999999999995
    10   1      105.99999999999999      51.124999999999993      55.214999999999989
    11   1      2.0449999999999946      49.079999999999998      55.214999999999989
    12   1      2.0449999999999946      51.124999999999993      53.169999999999995
    13   1      105.99999999999999      49.079999999999998      57.259999999999991
    14   1      2.0449999999999946      49.079999999999998      59.304999999999986
    15   1      2.0449999999999946      51.124999999999993      57.259999999999991
    16   1      2.0449999999999946      53.169999999999995      47.034999999999997
    17   1      105.99999999999999      53.169999999999995      49.079999999999998
    18   1      105.99999999999999      55.214999999999989      51.124999999999993
    19   1      2.0449999999999946      53.169999999999995      51.124999999999993
    20   1      2.0449999999999946      55.214999999999989      49.079999999999998
    21   1      105.99999999999999      53.169999999999995      53.169999999999995
    22   1      105.99999999999999      55.214999999999989      55.214999999999989
    23   1      2.0449999999999946      53.169999999999995      55.214999999999989
    24   1      2.0449999999999946      55.214999999999989      53.169999999999995
    25   1      105.99999999999999      53.169999999999995      57.259999999999991
    26   1      2.0449999999999946      53.169999999999995      59.304999999999986
    27   1      2.0449999999999946      55.214999999999989      57.259999999999991
    28   1      2.0449999999999946      57.259999999999991      47.034999999999997
    29   1      105.99999999999999      57.259999999999991      49.079999999999998
    30   1      2.0449999999999946      57.259999999999991      51.124999999999993
    31   1      2.0449999999999946      59.304999999999986      49.079999999999998
    32   1      105.99999999999999      57.259999999999991      53.169999999999995
    33   1      2.0449999999999946      57.259999999999991      55.214999999999989
    34   1      2.0449999999999946      59.304999999999986      53.169999999999995
    35   1      105.99999999999999      57.259999999999991      57.259999999999991
    36   1      2.0449999999999946      57.259999999999991      59.304999999999986
    37   1      2.0449999999999946      59.304999999999986      57.259999999999991
    38   1      4.0899999999999963      42.944999999999993      42.944999999999993
    39   1       6.134999999999998      40.899999999999991      42.944999999999993
    40   1       6.134999999999998      42.944999999999993      40.899999999999991
    41   1      4.0899999999999963      42.944999999999993      47.034999999999997
    42   1       6.134999999999998      40.899999999999991      47.034999999999997
    43   1       6.134999999999998      42.944999999999993      44.989999999999995
    44   1      4.0899999999999963      42.944999999999993      51.124999999999993
    45   1       6.134999999999998      40.899999999999991      51.124999999999993
    46   1       6.134999999999998      42.944999999999993      49.079999999999998
    47   1      4.0899999999999963      42.944999999999993      55.214999999999989
    48   1       6.134999999999998      40.899999999999991      55.214999999999989
    49   1       6.134999999999998      42.944999999999993      53.169999999999995
    50   1      4.0899999999999963      42.944999999999993      59.304999999999986
    51   1       6.134999999999998      40.899999999999991      59.304999999999986
    52   1       6.134999999999998      42.944999999999993      57.259999999999991
    53   1      4.0899999999999963      42.944999999999993      63.394999999999996
    54   1       6.134999999999998      40.899999999999991      63.394999999999996
    55   1       6.134999999999998      42.944999999999993      61.349999999999994
    56   1       6.134999999999998      42.944999999999993      65.439999999999984
    57   1      4.0899999999999963      47.034999999999997      42.944999999999993
    58   1       6.134999999999998      44.989999999999995      42.944999999999993
    59   1       6.134999999999998      47.034999999999997      40.899999999999991
    60   1      4.0899999999999963      44.989999999999995      44.989999999999995
    61   1      4.0899999999999963      47.034999999999997      47.034999999999997
    62   1       6.134999999999998      44.989999999999995      47.034999999999997
    63   1       6.134999999999998      47.034999999999997      44.989999999999995
    64   1      4.0899999999999963      44.989999999999995      49.079999999999998
    65   1      4.0899999999999963      47.034999999999997      51.124999999999993
    66   1       6.134999999999998      44.989999999999995      51.124999999999993
    67   1       6.134999999999998      47.034999999999997      49.079999999999998
    68   1      4.0899999999999963      44.989999999999995      53.169999999999995
    69   1      4.0899999999999963      47.034999999999997      55.214999999999989
    70   1       6.134999999999998      44.989999999999995      55.214999999999989
    71   1       6.134999999999998      47.034999999999997      53.169999999999995
    72   1      4.0899999999999963      44.989999999999995      57.259999999999991
    73   1      4.0899999999999963      47.034999999999997      59.304999999999986
    74   1       6.134999999999998      44.989999999999995      59.304999999999986
    75   1       6.134999999999998      47.034999999999997      57.259999999999991
    76   1      4.0899999999999963      44.989999999999995      61.349999999999994
    77   1      4.0899999999999963      47.034999999999997      63.394999999999996
    78   1       6.134999999999998      44.989999999999995      63.394999999999996
    79   1       6.134999999999998      47.034999999999997      61.349999999999994
    80   1       6.134999999999998      47.034999999999997      65.439999999999984
    81   1      4.0899999999999963      51.124999999999993      42.944999999999993
    82   1       6.134999999999998      49.079999999999998      42.944999999999993
    83   1       6.134999999999998      51.124999999999993      40.899999999999991
    84   1      4.0899999999999963      49.079999999999998      44.989999999999995
    85   1      4.0899999999999963      51.124999999999993      47.034999999999997
    86   1       6.134999999999998      49.079999999999998      47.034999999999997
    87   1       6.134999999999998      51.124999999999993      44.989999999999995
    88   1      4.0899999999999963      49.079999999999998      49.079999999999998
    89   1      4.0899999999999963      51.124999999999993      51.124999999999993
    90   1       6.134999999999998      49.079999999999998      51.124999999999993
    91   1       6.134999999999998      51.124999999999993      49.079999999999998
    92   1      4.0899999999999963      49.079999999999998      53.169999999999995
    93   1      4.0899999999999963      51.124999999999993      55.214999999999989
    94   1       6.134999999999998      49.079999999999998      55.214999999999989
    95   1       6.134999999999998      51.124999999999993      53.169999999999995
    96   1      4.0899999999999963      49.079999999999998      57.259999999999991
    97   1      4.0899999999999963      51.124999999999993      59.304999999999986
    98   1       6.134999999999998      49.079999999999998      59.304999999999986
    99   1       6.134999999999998      51.124999999999993      57.259999999999991
   100   1      4.0899999999999963      49.079999999999998      61.349999999999994
   101   1      4.0899999999999963      51.124999999999993      63.394999999999996
   102   1       6.134999999999998      49.079999999999998      63.394999999999996
   103   1       6.134999999999998      51.124999999999993      61.349999999999994
   104   1       6.134999999999998      51.124999999999993      65.439999999999984
   105   1      4.0899999999999963      55.214999999999989      42.944999999999993
   106   1       6.134999999999998      53.169999999999995      42.944999999999993
   107   1       6.134999999999998      55.214999999999989      40.899999999999991
   108   1      4.0899999999999963      53.169999999999995      44.989999999999995
   109   1      4.0899999999999963      55.214999999999989      47.034999999999997
   110   1       6.134999999999998      53.169999999999995      47.034999999999997
   111   1       6.134999999999998      55.214999999999989      44.989999999999995
   112   1      4.0899999999999963      53.169999999999995      49.079999999999998
   113   1      4.0899999999999963      55.214999999999989      51.124999999999993
   114   1       6.134999999999998      53.169999999999995      51.124999999999993
   115   1       6.134999999999998      55.214999999999989      49.079999999999998
   116   1      4.0899999999999963      53.169999999999995      53.169999999999995
   117   1      4.0899999999999963      55.214999999999989      55.214999999999989
   118   1       6.134999999999998      53.169999999999995      55.214999999999989
   119   1       6.134999999999998      55.214999999999989      53.169999999999995
   120   1      4.0899999999999963      53.169999999999995      57.259999999999991
   121   1      4.0899999999999963      55.214999999999989      59.304999999999986
   122   1       6.134999999999998      53.169999999999995      59.304999999999986
   123   1       6.134999999999998      55.214999999999989      57.259999999999991
   124   1      4.0899999999999963      53.169999999999995      61.349999999999994
   125   1      4.0899999999999963      55.214999999999989      63.394999999999996
   126   1       6.134999999999998      53.169999999999995      63.394999999999996
   127   1       6.134999999999998      55.214999999999989      61.349999999999994
   128   1       6.134999999999998      55.214999999999989      65.439999999999984
   129   1      4.0899999999999963      59.304999999999986      42.944999999999993
   130   1       6.134999999999998      57.259999999999991      42.944999999999993
   131   1       6.134999999999998      59.304999999999986      40.899999999999991
   132   1      4.0899999999999963      57.259999999999991      44.989999999999995
   133   1      4.0899999999999963      59.304999999999986      47.034999999999997
   134   1       6.134999999999998      57.259999999999991      47.034999999999997
   135   1       6.134999999999998      59.304999999999986      44.989999999999995
   136   1      4.0899999999999963      57.259999999999991      49.079999999999998
   137   1      4.0899999999999963      59.304999999999986      51.124999999999993
   138   1       6.134999999999998      57.259999999999991      51.124999999999993
   139   1       6.134999999999998      59.304999999999986      49.079999999999998
   140   1      4.0899999999999963      57.259999999999991      53.169999999999995
   141   1      4.0899999999999963      59.304999999999986      55.214999999999989
   142   1       6.134999999999998      57.259999999999991      55.214999999999989
   143   1       6.134999999999998      59.304999999999986      53.169999999999995
   144   1      4.0899999999999963      57.259999999999991      57.259999999999991
   145   1      4.0899999999999963      59.304999999999986      59.304999999999986
   146   1       6.134999999999998      57.259999999999991      59.304999999999986
   147   1       6.134999999999998      59.304999999999986      57.259999999999991
   148   1      4.0899999999999963      57.259999999999991      61.349999999999994
   149   1      4.0899999999999963      59.304999999999986      63.394999999999996
   150   1       6.134999999999998      57.259999999999991      63.394999999999996
   151   1       6.134999999999998      59.304999999999986      61.349999999999994
   152   1       6.134999999999998      59.304999999999986      65.439999999999984
   153   1      4.0899999999999963      63.394999999999996      42.944999999999993
   154   1       6.134999999999998      61.349999999999994      42.944999999999993
   155   1       6.134999999999998      63.394999999999996      40.899999999999991
   156   1      4.0899999999999963      61.349999999999994      44.989999999999995
   157   1      4.0899999999999963      63.394999999999996      47.034999999999997
   158   1       6.134999999999998      61.349999999999994      47.034999999999997
   159   1       6.134999999999998      63.394999999999996      44.989999999999995
   160   1      4.0899999999999963      61.349999999999994      49.079999999999998
   161   1      4.0899999999999963      63.394999999999996      51.124999999999993
   162   1       6.134999999999998      61.349999999999994      51.124999999999993
   163   1       6.134999999999998      63.394999999999996      49.079999999999998
   164   1      4.0899999999999963      61.349999999999994      53.169999999999995
   165   1      4.0899999999999963      63.394999999999996      55.214999999999989
   166   1       6.134999999999998      61.349999999999994      55.214999999999989
   167   1       6.134999999999998      63.394999999999996      53.169999999999995
   168   1      4.0899999999999963      61.349999999999994      57.259999999999991
   169   1      4.0899999999999963      63.394999999999996      59.304999999999986
   170   1       6.134999999999998      61.349999999999994      59.304999999999986
   171   1       6.134999999999998      63.394999999999996      57.259999999999991
   172   1      4.0899999999999963      61.349999999999994      61.349999999999994
   173   1      4.0899999999999963      63.394999999999996      63.394999999999996
   174   1       6.134999999999998      61.349999999999994      63.394999999999996
   175   1       6.134999999999998      63.394999999999996      61.349999999999994
   176   1       6.134999999999998      63.394999999999996      65.439999999999984
   177   1       6.134999999999998      65.439999999999984      42.944999999999993
   178   1       6.134999999999998      65.439999999999984      47.034999999999997
   179   1       6.134999999999998      65.439999999999984      51.124999999999993
   180   1       6.134999999999998      65.439999999999984      55.214999999999989
   181   1       6.134999999999998      65.439999999999984      59.304999999999986
   182   1       6.134999999999998      65.439999999999984      63.394999999999996
   183   1      10.224999999999993      34.765000000000001      36.809999999999995
   184   1      10.224999999999993      34.765000000000001      40.899999999999991
   185   1      10.224999999999993      34.765000000000001      44.989999999999995
   186   1      10.224999999999993      34.765000000000001      49.079999999999998
   187   1      10.224999999999993      34.765000000000001      53.169999999999995
   188   1      10.224999999999993      34.765000000000001      57.259999999999991
   189   1      10.224999999999993      34.765000000000001      61.349999999999994
   190   1      10.224999999999993      34.765000000000001      65.439999999999984
   191   1      10.224999999999993      34.765000000000001      69.530000000000001
   192   1      10.224999999999993      36.809999999999995      34.765000000000001
   193   1      8.1799999999999979      36.809999999999995      36.809999999999995
   194   1      8.1799999999999979      38.854999999999997      38.854999999999997
   195   1      10.224999999999993      36.809999999999995      38.854999999999997
   196   1      10.224999999999993      38.854999999999997      36.809999999999995
   197   1      8.1799999999999979      36.809999999999995      40.899999999999991
   198   1      8.1799999999999979      38.854999999999997      42.944999999999993
   199   1      10.224999999999993      36.809999999999995      42.944999999999993
   200   1      10.224999999999993      38.854999999999997      40.899999999999991
   201   1      8.1799999999999979      36.809999999999995      44.989999999999995
   202   1      8.1799999999999979      38.854999999999997      47.034999999999997
   203   1      10.224999999999993      36.809999999999995      47.034999999999997
   204   1      10.224999999999993      38.854999999999997      44.989999999999995
   205   1      8.1799999999999979      36.809999999999995      49.079999999999998
   206   1      8.1799999999999979      38.854999999999997      51.124999999999993
   207   1      10.224999999999993      36.809999999999995      51.124999999999993
   208   1      10.224999999999993      38.854999999999997      49.079999999999998
   209   1      8.1799999999999979      36.809999999999995      53.169999999999995
   210   1      8.1799999999999979      38.854999999999997      55.214999999999989
   211   1      10.224999999999993      36.809999999999995      55.214999999999989
   212   1      10.224999999999993      38.854999999999997      53.169999999999995
   213   1      8.1799999999999979      36.809999999999995      57.259999999999991
   214   1      8.1799999999999979      38.854999999999997      59.304999999999986
   215   1      10.224999999999993      36.809999999999995      59.304999999999986
   216   1      10.224999999999993      38.854999999999997      57.259999999999991
   217   1      8.1799999999999979      36.809999999999995      61.349999999999994
   218   1      8.1799999999999979      38.854999999999997      63.394999999999996
   219   1      10.224999999999993      36.809999999999995      63.394999999999996
   220   1      10.224999999999993      38.854999999999997      61.349999999999994
   221   1      8.1799999999999979      36.809999999999995      65.439999999999984
   222   1      8.1799999999999979      38.854999999999997      67.484999999999999
   223   1      10.224999999999993      36.809999999999995      67.484999999999999
   224   1      10.224999999999993      38.854999999999997      65.439999999999984
   225   1      8.1799999999999979      36.809999999999995      69.530000000000001
   226   1      10.224999999999993      36.809999999999995      71.574999999999989
   227   1      10.224999999999993      38.854999999999997      69.530000000000001
   228   1      10.224999999999993      40.899999999999991      34.765000000000001
   229   1      8.1799999999999979      40.899999999999991      36.809999999999995
   230   1      8.1799999999999979      42.944999999999993      38.854999999999997
   231   1      10.224999999999993      40.899999999999991      38.854999999999997
   232   1      10.224999999999993      42.944999999999993      36.809999999999995
   233   1      8.1799999999999979      40.899999999999991      40.899999999999991
   234   1      8.1799999999999979      42.944999999999993      42.944999999999993
   235   1      10.224999999999993      40.899999999999991      42.944999999999993
   236   1      10.224999999999993      42.944999999999993      40.899999999999991
   237   1      8.1799999999999979      40.899999999999991      44.989999999999995
   238   1      8.1799999999999979      42.944999999999993      47.034999999999997
   239   1      10.224999999999993      40.899999999999991      47.034999999999997
   240   1      10.224999999999993      42.944999999999993      44.989999999999995
   241   1      8.1799999999999979      40.899999999999991      49.079999999999998
   242   1      8.1799999999999979      42.944999999999993      51.124999999999993
   243   1      10.224999999999993      40.899999999999991      51.124999999999993
   244   1      10.224999999999993      42.944999999999993      49.079999999999998
   245   1      8.1799999999999979      40.899999999999991      53.169999999999995
   246   1      8.1799999999999979      42.944999999999993      55.214999999999989
   247   1      10.224999999999993      40.899999999999991      55.214999999999989
   248   1      10.224999999999993      42.944999999999993      53.169999999999995
   249   1      8.1799999999999979      40.899999999999991      57.259999999999991
   250   1      8.1799999999999979      42.944999999999993      59.304999999999986
   251   1      10.224999999999993      40.899999999999991      59.304999999999986
   252   1      10.224999999999993      42.944999999999993      57.259999999999991
   253   1      8.1799999999999979      40.899999999999991      61.349999999999994
   254   1      8.1799999999999979      42.944999999999993      63.394999999999996
   255   1      10.224999999999993      40.899999999999991      63.394999999999996
   256   1      10.224999999999993      42.944999999999993      61.349999999999994
   257   1      8.1799999999999979      40.899999999999991      65.439999999999984
   258   1      8.1799999999999979      42.944999999999993      67.484999999999999
   259   1      10.224999999999993      40.899999999999991      67.484999999999999
   260   1      10.224999999999993      42.944999999999993      65.439999999999984
   261   1      8.1799999999999979      40.899999999999991      69.530000000000001
   262   1      10.224999999999993      40.899999999999991      71.574999999999989
   263   1      10.224999999999993      42.944999999999993      69.530000000000001
   264   1      10.224999999999993      44.989999999999995      34.765000000000001
   265   1      8.1799999999999979      44.989999999999995      36.809999999999995
   266   1      8.1799999999999979      47.034999999999997      38.854999999999997
   267   1      10.224999999999993      44.989999999999995      38.854999999999997
   268   1      10.224999999999993      47.034999999999997      36.809999999999995
   269   1      8.1799999999999979      44.989999999999995      40.899999999999991
   270   1      8.1799999999999979      47.034999999999997      42.944999999999993
   271   1      10.224999999999993      44.989999999999995      42.944999999999993
   272   1      10.224999999999993      47.034999999999997      40.899999999999991
   273   1      8.1799999999999979      44.989999999999995      44.989999999999995
   274   1      8.1799999999999979      47.034999999999997      47.034999999999997
   275   1      10.224999999999993      44.989999999999995      47.034999999999997
   276   1      10.224999999999993      47.034999999999997      44.989999999999995
   277   1      8.1799999999999979      44.989999999999995      49.079999999999998
   278   1      8.1799999999999979      47.034999999999997      51.124999999999993
   279   1      10.224999999999993      44.989999999999995      51.124999999999993
   280   1      10.224999999999993      47.034999999999997      49.079999999999998
   281   1      8.1799999999999979      44.989999999999995      53.169999999999995
   282   1      8.1799999999999979      47.034999999999997      55.214999999999989
   283   1      10.224999999999993      44.989999999999995      55.214999999999989
   284   1      10.224999999999993      47.034999999999997      53.169999999999995
   285   1      8.1799999999999979      44.989999999999995      57.259999999999991
   286   1      8.1799999999999979      47.034999999999997      59.304999999999986
   287   1      10.224999999999993      44.989999999999995      59.304999999999986
   288   1      10.224999999999993      47.034999999999997      57.259999999999991
   289   1      8.1799999999999979      44.989999999999995      61.349999999999994
   290   1      8.1799999999999979      47.034999999999997      63.394999999999996
   291   1      10.224999999999993      44.989999999999995      63.394999999999996
   292   1      10.224999999999993      47.034999999999997      61.349999999999994
   293   1      8.1799999999999979      44.989999999999995      65.439999999999984
   294   1      8.1799999999999979      47.034999999999997      67.484999999999999
   295   1      10.224999999999993      44.989999999999995      67.484999999999999
   296   1      10.224999999999993      47.034999999999997      65.439999999999984
   297   1      8.1799999999999979      44.989999999999995      69.530000000000001
   298   1      10.224999999999993      44.989999999999995      71.574999999999989
   299   1      10.224999999999993      47.034999999999997      69.530000000000001
   300   1      10.224999999999993      49.079999999999998      34.765000000000001
   301   1      8.1799999999999979      49.079999999999998      36.809999999999995
   302   1      8.1799999999999979      51.124999999999993      38.854999999999997
   303   1      10.224999999999993      49.079999999999998      38.854999999999997
   304   1      10.224999999999993      51.124999999999993      36.809999999999995
   305   1      8.1799999999999979      49.079999999999998      40.899999999999991
   306   1      8.1799999999999979      51.124999999999993      42.944999999999993
   307   1      10.224999999999993      49.079999999999998      42.944999999999993
   308   1      10.224999999999993      51.124999999999993      40.899999999999991
   309   1      8.1799999999999979      49.079999999999998      44.989999999999995
   310   1      8.1799999999999979      51.124999999999993      47.034999999999997
   311   1      10.224999999999993      49.079999999999998      47.034999999999997
   312   1      10.224999999999993      51.124999999999993      44.989999999999995
   313   1      8.1799999999999979      49.079999999999998      49.079999999999998
   314   1      8.1799999999999979      51.124999999999993      51.124999999999993
   315   1      10.224999999999993      49.079999999999998      51.124999999999993
   316   1      10.224999999999993      51.124999999999993      49.079999999999998
   317   1      8.1799999999999979      49.079999999999998      53.169999999999995
   318   1      8.1799999999999979      51.124999999999993      55.214999999999989
   319   1      10.224999999999993      49.079999999999998      55.214999999999989
   320   1      10.224999999999993      51.124999999999993      53.169999999999995
   321   1      8.1799999999999979      49.079999999999998      57.259999999999991
   322   1      8.1799999999999979      51.124999999999993      59.304999999999986
   323   1      10.224999999999993      49.079999999999998      59.304999999999986
   324   1      10.224999999999993      51.124999999999993      57.259999999999991
   325   1      8.1799999999999979      49.079999999999998      61.349999999999994
   326   1      8.1799999999999979      51.124999999999993      63.394999999999996
   327   1      10.224999999999993      49.079999999999998      63.394999999999996
   328   1      10.224999999999993      51.124999999999993      61.349999999999994
   329   1      8.1799999999999979      49.079999999999998      65.439999999999984
   330   1      8.1799999999999979      51.124999999999993      67.484999999999999
   331   1      10.224999999999993      49.079999999999998      67.484999999999999
   332   1      10.224999999999993      51.124999999999993      65.439999999999984
   333   1      8.1799999999999979      49.079999999999998      69.530000000000001
   334   1      10.224999999999993      49.079999999999998      71.574999999999989
   335   1      10.224999999999993      51.124999999999993      69.530000000000001
   336   1      10.224999999999993      53.169999999999995      34.765000000000001
   337   1      8.1799999999999979      53.169999999999995      36.809999999999995
   338   1      8.1799999999999979      55.214999999999989      38.854999999999997
   339   1      10.224999999999993      53.169999999999995      38.854999999999997
   340   1      10.224999999999993      55.214999999999989      36.809999999999995
   341   1      8.1799999999999979      53.169999999999995      40.899999999999991
   342   1      8.1799999999999979      55.214999999999989      42.944999999999993
   343   1      10.224999999999993      53.169999999999995      42.944999999999993
   344   1      10.224999999999993      55.214999999999989      40.899999999999991
   345   1      8.1799999999999979      53.169999999999995      44.989999999999995
   346   1      8.1799999999999979      55.214999999999989      47.034999999999997
   347   1      10.224999999999993      53.169999999999995      47.034999999999997
   348   1      10.224999999999993      55.214999999999989      44.989999999999995
   349   1      8.1799999999999979      53.169999999999995      49.079999999999998
   350   1      8.1799999999999979      55.214999999999989      51.124999999999993
   351   1      10.224999999999993      53.169999999999995      51.124999999999993
   352   1      10.224999999999993      55.214999999999989      49.079999999999998
   353   1      8.1799999999999979      53.169999999999995      53.169999999999995
   354   1      8.1799999999999979      55.214999999999989      55.214999999999989
   355   1      10.224999999999993      53.169999999999995      55.214999999999989
   356   1      10.224999999999993      55.214999999999989      53.169999999999995
   357   1      8.1799999999999979      53.169999999999995      57.259999999999991
   358   1      8.1799999999999979      55.214999999999989      59.304999999999986