model_files/Ag/Ag_30000/Ag_433/data.Ag_433_fcc_30337 (written by ASE) 

30337 	 atoms 
1  atom types
0.0                     130  xlo xhi
0.0                     130  ylo yhi
0.0                     130  zlo zhi


Atoms 

     1   1      2.0449999999999946      63.395000000000003      65.440000000000012
     2   1      2.0449999999999946      65.440000000000012      63.395000000000003
     3   1                       0      65.440000000000012      65.440000000000012
     4   1      2.0449999999999946      65.440000000000012      67.484999999999999
     5   1      2.0449999999999946      67.484999999999999      65.440000000000012
     6   1       6.134999999999998                  59.305      65.440000000000012
     7   1      4.0899999999999972      63.395000000000003      63.395000000000003
     8   1       6.134999999999998      61.349999999999994      63.395000000000003
     9   1       6.134999999999998      63.395000000000003      61.349999999999994
    10   1      4.0899999999999972      61.349999999999994      65.440000000000012
    11   1      4.0899999999999972      63.395000000000003      67.484999999999999
    12   1       6.134999999999998      61.349999999999994      67.484999999999999
    13   1       6.134999999999998      63.395000000000003      65.440000000000012
    14   1       6.134999999999998      63.395000000000003      69.530000000000001
    15   1       6.134999999999998      65.440000000000012                  59.305
    16   1      4.0899999999999972      65.440000000000012      61.349999999999994
    17   1      4.0899999999999972      67.484999999999999      63.395000000000003
    18   1       6.134999999999998      65.440000000000012      63.395000000000003
    19   1       6.134999999999998      67.484999999999999      61.349999999999994
    20   1      4.0899999999999972      65.440000000000012      65.440000000000012
    21   1      4.0899999999999972      67.484999999999999      67.484999999999999
    22   1       6.134999999999998      65.440000000000012      67.484999999999999
    23   1       6.134999999999998      67.484999999999999      65.440000000000012
    24   1      4.0899999999999972      65.440000000000012      69.530000000000001
    25   1       6.134999999999998      65.440000000000012      71.575000000000003
    26   1       6.134999999999998      67.484999999999999      69.530000000000001
    27   1       6.134999999999998      69.530000000000001      63.395000000000003
    28   1      4.0899999999999972      69.530000000000001      65.440000000000012
    29   1       6.134999999999998      69.530000000000001      67.484999999999999
    30   1       6.134999999999998      71.575000000000003      65.440000000000012
    31   1      10.224999999999994      55.215000000000003      65.440000000000012
    32   1      8.1799999999999944                  59.305      63.395000000000003
    33   1      10.224999999999994      57.259999999999991      63.395000000000003
    34   1      10.224999999999994                  59.305      61.349999999999994
    35   1      8.1799999999999944      57.259999999999991      65.440000000000012
    36   1      8.1799999999999944                  59.305      67.484999999999999
    37   1      10.224999999999994      57.259999999999991      67.484999999999999
    38   1      10.224999999999994                  59.305      65.440000000000012
    39   1      10.224999999999994                  59.305      69.530000000000001
    40   1      8.1799999999999944      63.395000000000003                  59.305
    41   1      10.224999999999994      61.349999999999994                  59.305
    42   1      10.224999999999994      63.395000000000003      57.259999999999991
    43   1      8.1799999999999944      61.349999999999994      61.349999999999994
    44   1      8.1799999999999944      63.395000000000003      63.395000000000003
    45   1      10.224999999999994      61.349999999999994      63.395000000000003
    46   1      10.224999999999994      63.395000000000003      61.349999999999994
    47   1      8.1799999999999944      61.349999999999994      65.440000000000012
    48   1      8.1799999999999944      63.395000000000003      67.484999999999999
    49   1      10.224999999999994      61.349999999999994      67.484999999999999
    50   1      10.224999999999994      63.395000000000003      65.440000000000012
    51   1      8.1799999999999944      61.349999999999994      69.530000000000001
    52   1      8.1799999999999944      63.395000000000003      71.575000000000003
    53   1      10.224999999999994      61.349999999999994      71.575000000000003
    54   1      10.224999999999994      63.395000000000003      69.530000000000001
    55   1      10.224999999999994      63.395000000000003      73.620000000000005
    56   1      10.224999999999994      65.440000000000012      55.215000000000003
    57   1      8.1799999999999944      65.440000000000012      57.259999999999991
    58   1      8.1799999999999944      67.484999999999999                  59.305
    59   1      10.224999999999994      65.440000000000012                  59.305
    60   1      10.224999999999994      67.484999999999999      57.259999999999991
    61   1      8.1799999999999944      65.440000000000012      61.349999999999994
    62   1      8.1799999999999944      67.484999999999999      63.395000000000003
    63   1      10.224999999999994      65.440000000000012      63.395000000000003
    64   1      10.224999999999994      67.484999999999999      61.349999999999994
    65   1      8.1799999999999944      65.440000000000012      65.440000000000012
    66   1      8.1799999999999944      67.484999999999999      67.484999999999999
    67   1      10.224999999999994      65.440000000000012      67.484999999999999
    68   1      10.224999999999994      67.484999999999999      65.440000000000012
    69   1      8.1799999999999944      65.440000000000012      69.530000000000001
    70   1      8.1799999999999944      67.484999999999999      71.575000000000003
    71   1      10.224999999999994      65.440000000000012      71.575000000000003
    72   1      10.224999999999994      67.484999999999999      69.530000000000001
    73   1      8.1799999999999944      65.440000000000012      73.620000000000005
    74   1      10.224999999999994      65.440000000000012      75.664999999999992
    75   1      10.224999999999994      67.484999999999999      73.620000000000005
    76   1      10.224999999999994      69.530000000000001                  59.305
    77   1      8.1799999999999944      69.530000000000001      61.349999999999994
    78   1      8.1799999999999944      71.575000000000003      63.395000000000003
    79   1      10.224999999999994      69.530000000000001      63.395000000000003
    80   1      10.224999999999994      71.575000000000003      61.349999999999994
    81   1      8.1799999999999944      69.530000000000001      65.440000000000012
    82   1      8.1799999999999944      71.575000000000003      67.484999999999999
    83   1      10.224999999999994      69.530000000000001      67.484999999999999
    84   1      10.224999999999994      71.575000000000003      65.440000000000012
    85   1      8.1799999999999944      69.530000000000001      69.530000000000001
    86   1      10.224999999999994      69.530000000000001      71.575000000000003
    87   1      10.224999999999994      71.575000000000003      69.530000000000001
    88   1      10.224999999999994      73.620000000000005      63.395000000000003
    89   1      8.1799999999999944      73.620000000000005      65.440000000000012
    90   1      10.224999999999994      73.620000000000005      67.484999999999999
    91   1      10.224999999999994      75.664999999999992      65.440000000000012
    92   1      14.314999999999998      47.034999999999997      65.440000000000012
    93   1      12.269999999999996      51.125000000000007      63.395000000000003
    94   1      14.314999999999998      49.079999999999998      63.395000000000003
    95   1      14.314999999999998      51.125000000000007      61.349999999999994
    96   1      12.269999999999996      49.079999999999998      65.440000000000012
    97   1      12.269999999999996      51.125000000000007      67.484999999999999
    98   1      14.314999999999998      49.079999999999998      67.484999999999999
    99   1      14.314999999999998      51.125000000000007      65.440000000000012
   100   1      14.314999999999998      51.125000000000007      69.530000000000001
   101   1      12.269999999999996      55.215000000000003                  59.305
   102   1      14.314999999999998      53.169999999999995                  59.305
   103   1      14.314999999999998      55.215000000000003      57.259999999999991
   104   1      12.269999999999996      53.169999999999995      61.349999999999994
   105   1      12.269999999999996      55.215000000000003      63.395000000000003
   106   1      14.314999999999998      53.169999999999995      63.395000000000003
   107   1      14.314999999999998      55.215000000000003      61.349999999999994
   108   1      12.269999999999996      53.169999999999995      65.440000000000012
   109   1      12.269999999999996      55.215000000000003      67.484999999999999
   110   1      14.314999999999998      53.169999999999995      67.484999999999999
   111   1      14.314999999999998      55.215000000000003      65.440000000000012
   112   1      12.269999999999996      53.169999999999995      69.530000000000001
   113   1      12.269999999999996      55.215000000000003      71.575000000000003
   114   1      14.314999999999998      53.169999999999995      71.575000000000003
   115   1      14.314999999999998      55.215000000000003      69.530000000000001
   116   1      14.314999999999998      55.215000000000003      73.620000000000005
   117   1      12.269999999999996                  59.305      55.215000000000003
   118   1      14.314999999999998      57.259999999999991      55.215000000000003
   119   1      14.314999999999998                  59.305      53.169999999999995
   120   1      12.269999999999996      57.259999999999991      57.259999999999991
   121   1      12.269999999999996                  59.305                  59.305
   122   1      14.314999999999998      57.259999999999991                  59.305
   123   1      14.314999999999998                  59.305      57.259999999999991
   124   1      12.269999999999996      57.259999999999991      61.349999999999994
   125   1      12.269999999999996                  59.305      63.395000000000003
   126   1      14.314999999999998      57.259999999999991      63.395000000000003
   127   1      14.314999999999998                  59.305      61.349999999999994
   128   1      12.269999999999996      57.259999999999991      65.440000000000012
   129   1      12.269999999999996                  59.305      67.484999999999999
   130   1      14.314999999999998      57.259999999999991      67.484999999999999
   131   1      14.314999999999998                  59.305      65.440000000000012
   132   1      12.269999999999996      57.259999999999991      69.530000000000001
   133   1      12.269999999999996                  59.305      71.575000000000003
   134   1      14.314999999999998      57.259999999999991      71.575000000000003
   135   1      14.314999999999998                  59.305      69.530000000000001
   136   1      12.269999999999996      57.259999999999991      73.620000000000005
   137   1      12.269999999999996                  59.305      75.664999999999992
   138   1      14.314999999999998      57.259999999999991      75.664999999999992
   139   1      14.314999999999998                  59.305      73.620000000000005
   140   1      14.314999999999998                  59.305      77.709999999999994
   141   1      12.269999999999996      63.395000000000003      51.125000000000007
   142   1      14.314999999999998      61.349999999999994      51.125000000000007
   143   1      14.314999999999998      63.395000000000003      49.079999999999998
   144   1      12.269999999999996      61.349999999999994      53.169999999999995
   145   1      12.269999999999996      63.395000000000003      55.215000000000003
   146   1      14.314999999999998      61.349999999999994      55.215000000000003
   147   1      14.314999999999998      63.395000000000003      53.169999999999995
   148   1      12.269999999999996      61.349999999999994      57.259999999999991
   149   1      12.269999999999996      63.395000000000003                  59.305
   150   1      14.314999999999998      61.349999999999994                  59.305
   151   1      14.314999999999998      63.395000000000003      57.259999999999991
   152   1      12.269999999999996      61.349999999999994      61.349999999999994
   153   1      12.269999999999996      63.395000000000003      63.395000000000003
   154   1      14.314999999999998      61.349999999999994      63.395000000000003
   155   1      14.314999999999998      63.395000000000003      61.349999999999994
   156   1      12.269999999999996      61.349999999999994      65.440000000000012
   157   1      12.269999999999996      63.395000000000003      67.484999999999999
   158   1      14.314999999999998      61.349999999999994      67.484999999999999
   159   1      14.314999999999998      63.395000000000003      65.440000000000012
   160   1      12.269999999999996      61.349999999999994      69.530000000000001
   161   1      12.269999999999996      63.395000000000003      71.575000000000003
   162   1      14.314999999999998      61.349999999999994      71.575000000000003
   163   1      14.314999999999998      63.395000000000003      69.530000000000001
   164   1      12.269999999999996      61.349999999999994      73.620000000000005
   165   1      12.269999999999996      63.395000000000003      75.664999999999992
   166   1      14.314999999999998      61.349999999999994      75.664999999999992
   167   1      14.314999999999998      63.395000000000003      73.620000000000005
   168   1      12.269999999999996      61.349999999999994      77.709999999999994
   169   1      12.269999999999996      63.395000000000003       79.75500000000001
   170   1      14.314999999999998      61.349999999999994       79.75500000000001
   171   1      14.314999999999998      63.395000000000003      77.709999999999994
   172   1      14.314999999999998      63.395000000000003      81.799999999999997
   173   1      14.314999999999998      65.440000000000012      47.034999999999997
   174   1      12.269999999999996      65.440000000000012      49.079999999999998
   175   1      12.269999999999996      67.484999999999999      51.125000000000007
   176   1      14.314999999999998      65.440000000000012      51.125000000000007
   177   1      14.314999999999998      67.484999999999999      49.079999999999998
   178   1      12.269999999999996      65.440000000000012      53.169999999999995
   179   1      12.269999999999996      67.484999999999999      55.215000000000003
   180   1      14.314999999999998      65.440000000000012      55.215000000000003
   181   1      14.314999999999998      67.484999999999999      53.169999999999995
   182   1      12.269999999999996      65.440000000000012      57.259999999999991
   183   1      12.269999999999996      67.484999999999999                  59.305
   184   1      14.314999999999998      65.440000000000012                  59.305
   185   1      14.314999999999998      67.484999999999999      57.259999999999991
   186   1      12.269999999999996      65.440000000000012      61.349999999999994
   187   1      12.269999999999996      67.484999999999999      63.395000000000003
   188   1      14.314999999999998      65.440000000000012      63.395000000000003
   189   1      14.314999999999998      67.484999999999999      61.349999999999994
   190   1      12.269999999999996      65.440000000000012      65.440000000000012
   191   1      12.269999999999996      67.484999999999999      67.484999999999999
   192   1      14.314999999999998      65.440000000000012      67.484999999999999
   193   1      14.314999999999998      67.484999999999999      65.440000000000012
   194   1      12.269999999999996      65.440000000000012      69.530000000000001
   195   1      12.269999999999996      67.484999999999999      71.575000000000003
   196   1      14.314999999999998      65.440000000000012      71.575000000000003
   197   1      14.314999999999998      67.484999999999999      69.530000000000001
   198   1      12.269999999999996      65.440000000000012      73.620000000000005
   199   1      12.269999999999996      67.484999999999999      75.664999999999992
   200   1      14.314999999999998      65.440000000000012      75.664999999999992
   201   1      14.314999999999998      67.484999999999999      73.620000000000005
   202   1      12.269999999999996      65.440000000000012      77.709999999999994
   203   1      12.269999999999996      67.484999999999999       79.75500000000001
   204   1      14.314999999999998      65.440000000000012       79.75500000000001
   205   1      14.314999999999998      67.484999999999999      77.709999999999994
   206   1      12.269999999999996      65.440000000000012      81.799999999999997
   207   1      14.314999999999998      65.440000000000012      83.844999999999999
   208   1      14.314999999999998      67.484999999999999      81.799999999999997
   209   1      14.314999999999998      69.530000000000001      51.125000000000007
   210   1      12.269999999999996      69.530000000000001      53.169999999999995
   211   1      12.269999999999996      71.575000000000003      55.215000000000003
   212   1      14.314999999999998      69.530000000000001      55.215000000000003
   213   1      14.314999999999998      71.575000000000003      53.169999999999995
   214   1      12.269999999999996      69.530000000000001      57.259999999999991
   215   1      12.269999999999996      71.575000000000003                  59.305
   216   1      14.314999999999998      69.530000000000001                  59.305
   217   1      14.314999999999998      71.575000000000003      57.259999999999991
   218   1      12.269999999999996      69.530000000000001      61.349999999999994
   219   1      12.269999999999996      71.575000000000003      63.395000000000003
   220   1      14.314999999999998      69.530000000000001      63.395000000000003
   221   1      14.314999999999998      71.575000000000003      61.349999999999994
   222   1      12.269999999999996      69.530000000000001      65.440000000000012
   223   1      12.269999999999996      71.575000000000003      67.484999999999999
   224   1      14.314999999999998      69.530000000000001      67.484999999999999
   225   1      14.314999999999998      71.575000000000003      65.440000000000012
   226   1      12.269999999999996      69.530000000000001      69.530000000000001
   227   1      12.269999999999996      71.575000000000003      71.575000000000003
   228   1      14.314999999999998      69.530000000000001      71.575000000000003
   229   1      14.314999999999998      71.575000000000003      69.530000000000001
   230   1      12.269999999999996      69.530000000000001      73.620000000000005
   231   1      12.269999999999996      71.575000000000003      75.664999999999992
   232   1      14.314999999999998      69.530000000000001      75.664999999999992
   233   1      14.314999999999998      71.575000000000003      73.620000000000005
   234   1      12.269999999999996      69.530000000000001      77.709999999999994
   235   1      14.314999999999998      69.530000000000001       79.75500000000001
   236   1      14.314999999999998      71.575000000000003      77.709999999999994
   237   1      14.314999999999998      73.620000000000005      55.215000000000003
   238   1      12.269999999999996      73.620000000000005      57.259999999999991
   239   1      12.269999999999996      75.664999999999992                  59.305
   240   1      14.314999999999998      73.620000000000005                  59.305
   241   1      14.314999999999998      75.664999999999992      57.259999999999991
   242   1      12.269999999999996      73.620000000000005      61.349999999999994
   243   1      12.269999999999996      75.664999999999992      63.395000000000003
   244   1      14.314999999999998      73.620000000000005      63.395000000000003
   245   1      14.314999999999998      75.664999999999992      61.349999999999994
   246   1      12.269999999999996      73.620000000000005      65.440000000000012
   247   1      12.269999999999996      75.664999999999992      67.484999999999999
   248   1      14.314999999999998      73.620000000000005      67.484999999999999
   249   1      14.314999999999998      75.664999999999992      65.440000000000012
   250   1      12.269999999999996      73.620000000000005      69.530000000000001
   251   1      12.269999999999996      75.664999999999992      71.575000000000003
   252   1      14.314999999999998      73.620000000000005      71.575000000000003
   253   1      14.314999999999998      75.664999999999992      69.530000000000001
   254   1      12.269999999999996      73.620000000000005      73.620000000000005
   255   1      14.314999999999998      73.620000000000005      75.664999999999992
   256   1      14.314999999999998      75.664999999999992      73.620000000000005
   257   1      14.314999999999998      77.709999999999994                  59.305
   258   1      12.269999999999996      77.709999999999994      61.349999999999994
   259   1      12.269999999999996       79.75500000000001      63.395000000000003
   260   1      14.314999999999998      77.709999999999994      63.395000000000003
   261   1      14.314999999999998       79.75500000000001      61.349999999999994
   262   1      12.269999999999996      77.709999999999994      65.440000000000012
   263   1      12.269999999999996       79.75500000000001      67.484999999999999
   264   1      14.314999999999998      77.709999999999994      67.484999999999999
   265   1      14.314999999999998       79.75500000000001      65.440000000000012
   266   1      12.269999999999996      77.709999999999994      69.530000000000001
   267   1      14.314999999999998      77.709999999999994      71.575000000000003
   268   1      14.314999999999998       79.75500000000001      69.530000000000001
   269   1      14.314999999999998      81.799999999999997      63.395000000000003
   270   1      12.269999999999996      81.799999999999997      65.440000000000012
   271   1      14.314999999999998      81.799999999999997      67.484999999999999
   272   1      14.314999999999998      83.844999999999999      65.440000000000012
   273   1      18.404999999999994      42.944999999999993      65.440000000000012
   274   1      16.360000000000003      47.034999999999997      63.395000000000003
   275   1      18.404999999999994      44.989999999999995      63.395000000000003
   276   1      18.404999999999994      47.034999999999997      61.349999999999994
   277   1      16.360000000000003      44.989999999999995      65.440000000000012
   278   1      16.360000000000003      47.034999999999997      67.484999999999999
   279   1      18.404999999999994      44.989999999999995      67.484999999999999
   280   1      18.404999999999994      47.034999999999997      65.440000000000012
   281   1      18.404999999999994      47.034999999999997      69.530000000000001
   282   1      16.360000000000003      51.125000000000007                  59.305
   283   1      18.404999999999994      49.079999999999998                  59.305
   284   1      18.404999999999994      51.125000000000007      57.259999999999991
   285   1      16.360000000000003      49.079999999999998      61.349999999999994
   286   1      16.360000000000003      51.125000000000007      63.395000000000003
   287   1      18.404999999999994      49.079999999999998      63.395000000000003
   288   1      18.404999999999994      51.125000000000007      61.349999999999994
   289   1      16.360000000000003      49.079999999999998      65.440000000000012
   290   1      16.360000000000003      51.125000000000007      67.484999999999999
   291   1      18.404999999999994      49.079999999999998      67.484999999999999
   292   1      18.404999999999994      51.125000000000007      65.440000000000012
   293   1      16.360000000000003      49.079999999999998      69.530000000000001
   294   1      16.360000000000003      51.125000000000007      71.575000000000003
   295   1      18.404999999999994      49.079999999999998      71.575000000000003
   296   1      18.404999999999994      51.125000000000007      69.530000000000001
   297   1      18.404999999999994      51.125000000000007      73.620000000000005
   298   1      16.360000000000003      55.215000000000003      55.215000000000003
   299   1      18.404999999999994      53.169999999999995      55.215000000000003
   300   1      18.404999999999994      55.215000000000003      53.169999999999995
   301   1      16.360000000000003      53.169999999999995      57.259999999999991
   302   1      16.360000000000003      55.215000000000003                  59.305
   303   1      18.404999999999994      53.169999999999995                  59.305
   304   1      18.404999999999994      55.215000000000003      57.259999999999991
   305   1      16.360000000000003      53.169999999999995      61.349999999999994
   306   1      16.360000000000003      55.215000000000003      63.395000000000003
   307   1      18.404999999999994      53.169999999999995      63.395000000000003
   308   1      18.404999999999994      55.215000000000003      61.349999999999994
   309   1      16.360000000000003      53.169999999999995      65.440000000000012
   310   1      16.360000000000003      55.215000000000003      67.484999999999999
   311   1      18.404999999999994      53.169999999999995      67.484999999999999
   312   1      18.404999999999994      55.215000000000003      65.440000000000012
   313   1      16.360000000000003      53.169999999999995      69.530000000000001
   314   1      16.360000000000003      55.215000000000003      71.575000000000003
   315   1      18.404999999999994      53.169999999999995      71.575000000000003
   316   1      18.404999999999994      55.215000000000003      69.530000000000001
   317   1      16.360000000000003      53.169999999999995      73.620000000000005
   318   1      16.360000000000003      55.215000000000003      75.664999999999992
   319   1      18.404999999999994      53.169999999999995      75.664999999999992
   320   1      18.404999999999994      55.215000000000003      73.620000000000005
   321   1      18.404999999999994      55.215000000000003      77.709999999999994
   322   1      16.360000000000003                  59.305      51.125000000000007
   323   1      18.404999999999994      57.259999999999991      51.125000000000007
   324   1      18.404999999999994                  59.305      49.079999999999998
   325   1      16.360000000000003      57.259999999999991      53.169999999999995
   326   1      16.360000000000003                  59.305      55.215000000000003
   327   1      18.404999999999994      57.259999999999991      55.215000000000003
   328   1      18.404999999999994                  59.305      53.169999999999995
   329   1      16.360000000000003      57.259999999999991      57.259999999999991
   330   1      16.360000000000003                  59.305                  59.305
   331   1      18.404999999999994      57.259999999999991                  59.305
   332   1      18.404999999999994                  59.305      57.259999999999991
   333   1      16.360000000000003      57.259999999999991      61.349999999999994
   334   1      16.360000000000003                  59.305      63.395000000000003
   335   1      18.404999999999994      57.259999999999991      63.395000000000003
   336   1      18.404999999999994                  59.305      61.349999999999994
   337   1      16.360000000000003      57.259999999999991      65.440000000000012
   338   1      16.360000000000003                  59.305      67.484999999999999
   339   1      18.404999999999994      57.259999999999991      67.484999999999999
   340   1      18.404999999999994                  59.305      65.440000000000012
   341   1      16.360000000000003      57.259999999999991      69.530000000000001
   342   1      16.360000000000003                  59.305      71.575000000000003
   343   1      18.404999999999994      57.259999999999991      71.575000000000003
   344   1      18.404999999999994                  59.305      69.530000000000001
   345   1      16.360000000000003      57.259999999999991      73.620000000000005
   346   1      16.360000000000003                  59.305      75.664999999999992
   347   1      18.404999999999994      57.259999999999991      75.664999999999992
   348   1      18.404999999999994                  59.305      73.620000000000005
   349   1      16.360000000000003      57.259999999999991      77.709999999999994
   350   1      16.360000000000003                  59.305       79.75500000000001
   351   1      18.404999999999994      57.259999999999991       79.75500000000001
   352   1      18.404999999999994                  59.305      77.709999999999994
   353   1      18.404999999999994                  59.305      81.799999999999997
   354   1      16.360000000000003      63.395000000000003      47.034999999999997
   355   1      18.404999999999994      61.349999999999994      47.034999999999997
   356   1      18.404999999999994      63.395000000000003      44.989999999999995
   357   1      16.360000000000003      61.349999999999994      49.079999999999998
   358   1      16.360000000000003      63.395000000000003      51.125000000000007