model_files/Fe/Fe_30000/Fe_211/data.Fe_211_fcc_29843 (written by ASE) 

29843 	 atoms 
1  atom types
0.0                      99  xlo xhi
0.0                      99  ylo yhi
0.0                      99  zlo zhi


Atoms 

     1   1      1.4349999999999954      44.484999999999999      47.354999999999997
     2   1      1.4349999999999954      44.484999999999999      50.224999999999994
     3   1      1.4349999999999954      47.354999999999997      44.484999999999999
     4   1      1.4349999999999954      47.354999999999997      47.354999999999997
     5   1      98.999999999999986      45.919999999999995      48.789999999999992
     6   1      1.4349999999999954      47.354999999999997      50.224999999999994
     7   1      1.4349999999999954      47.354999999999997      53.094999999999999
     8   1      1.4349999999999954      50.224999999999994      44.484999999999999
     9   1      98.999999999999986      48.789999999999992      45.919999999999995
    10   1      1.4349999999999954      50.224999999999994      47.354999999999997
    11   1      98.999999999999986      48.789999999999992      48.789999999999992
    12   1      1.4349999999999954      50.224999999999994      50.224999999999994
    13   1      98.999999999999986      48.789999999999992      51.659999999999989
    14   1      1.4349999999999954      50.224999999999994      53.094999999999999
    15   1      1.4349999999999954      53.094999999999999      47.354999999999997
    16   1      98.999999999999986      51.659999999999989      48.789999999999992
    17   1      1.4349999999999954      53.094999999999999      50.224999999999994
    18   1      4.3049999999999926      38.744999999999997      47.354999999999997
    19   1      4.3049999999999926      38.744999999999997      50.224999999999994
    20   1      4.3049999999999926      41.614999999999995      44.484999999999999
    21   1      4.3049999999999926      41.614999999999995      47.354999999999997
    22   1      2.8699999999999974      40.179999999999993      48.789999999999992
    23   1      4.3049999999999926      41.614999999999995      50.224999999999994
    24   1      4.3049999999999926      41.614999999999995      53.094999999999999
    25   1      4.3049999999999926      44.484999999999999      41.614999999999995
    26   1      4.3049999999999926      44.484999999999999      44.484999999999999
    27   1      2.8699999999999974       43.04999999999999      45.919999999999995
    28   1      4.3049999999999926      44.484999999999999      47.354999999999997
    29   1      2.8699999999999974       43.04999999999999      48.789999999999992
    30   1      4.3049999999999926      44.484999999999999      50.224999999999994
    31   1      2.8699999999999974       43.04999999999999      51.659999999999989
    32   1      4.3049999999999926      44.484999999999999      53.094999999999999
    33   1      4.3049999999999926      44.484999999999999      55.964999999999989
    34   1      4.3049999999999926      47.354999999999997      38.744999999999997
    35   1      4.3049999999999926      47.354999999999997      41.614999999999995
    36   1      2.8699999999999974      45.919999999999995       43.04999999999999
    37   1      4.3049999999999926      47.354999999999997      44.484999999999999
    38   1      2.8699999999999974      45.919999999999995      45.919999999999995
    39   1      4.3049999999999926      47.354999999999997      47.354999999999997
    40   1      2.8699999999999974      45.919999999999995      48.789999999999992
    41   1      4.3049999999999926      47.354999999999997      50.224999999999994
    42   1      2.8699999999999974      45.919999999999995      51.659999999999989
    43   1      4.3049999999999926      47.354999999999997      53.094999999999999
    44   1      2.8699999999999974      45.919999999999995      54.529999999999994
    45   1      4.3049999999999926      47.354999999999997      55.964999999999989
    46   1      4.3049999999999926      47.354999999999997      58.835000000000001
    47   1      4.3049999999999926      50.224999999999994      38.744999999999997
    48   1      2.8699999999999974      48.789999999999992      40.179999999999993
    49   1      4.3049999999999926      50.224999999999994      41.614999999999995
    50   1      2.8699999999999974      48.789999999999992       43.04999999999999
    51   1      4.3049999999999926      50.224999999999994      44.484999999999999
    52   1      2.8699999999999974      48.789999999999992      45.919999999999995
    53   1      4.3049999999999926      50.224999999999994      47.354999999999997
    54   1      2.8699999999999974      48.789999999999992      48.789999999999992
    55   1      4.3049999999999926      50.224999999999994      50.224999999999994
    56   1      2.8699999999999974      48.789999999999992      51.659999999999989
    57   1      4.3049999999999926      50.224999999999994      53.094999999999999
    58   1      2.8699999999999974      48.789999999999992      54.529999999999994
    59   1      4.3049999999999926      50.224999999999994      55.964999999999989
    60   1      2.8699999999999974      48.789999999999992      57.399999999999999
    61   1      4.3049999999999926      50.224999999999994      58.835000000000001
    62   1      4.3049999999999926      53.094999999999999      41.614999999999995
    63   1      2.8699999999999974      51.659999999999989       43.04999999999999
    64   1      4.3049999999999926      53.094999999999999      44.484999999999999
    65   1      2.8699999999999974      51.659999999999989      45.919999999999995
    66   1      4.3049999999999926      53.094999999999999      47.354999999999997
    67   1      2.8699999999999974      51.659999999999989      48.789999999999992
    68   1      4.3049999999999926      53.094999999999999      50.224999999999994
    69   1      2.8699999999999974      51.659999999999989      51.659999999999989
    70   1      4.3049999999999926      53.094999999999999      53.094999999999999
    71   1      2.8699999999999974      51.659999999999989      54.529999999999994
    72   1      4.3049999999999926      53.094999999999999      55.964999999999989
    73   1      4.3049999999999926      55.964999999999989      44.484999999999999
    74   1      2.8699999999999974      54.529999999999994      45.919999999999995
    75   1      4.3049999999999926      55.964999999999989      47.354999999999997
    76   1      2.8699999999999974      54.529999999999994      48.789999999999992
    77   1      4.3049999999999926      55.964999999999989      50.224999999999994
    78   1      2.8699999999999974      54.529999999999994      51.659999999999989
    79   1      4.3049999999999926      55.964999999999989      53.094999999999999
    80   1      4.3049999999999926      58.835000000000001      47.354999999999997
    81   1      2.8699999999999974      57.399999999999999      48.789999999999992
    82   1      4.3049999999999926      58.835000000000001      50.224999999999994
    83   1       7.174999999999998      33.005000000000003      47.354999999999997
    84   1       7.174999999999998      33.005000000000003      50.224999999999994
    85   1       7.174999999999998                  35.875      44.484999999999999
    86   1       7.174999999999998                  35.875      47.354999999999997
    87   1      5.7399999999999949      34.439999999999991      48.789999999999992
    88   1       7.174999999999998                  35.875      50.224999999999994
    89   1       7.174999999999998                  35.875      53.094999999999999
    90   1       7.174999999999998      38.744999999999997      41.614999999999995
    91   1       7.174999999999998      38.744999999999997      44.484999999999999
    92   1      5.7399999999999949      37.309999999999995      45.919999999999995
    93   1       7.174999999999998      38.744999999999997      47.354999999999997
    94   1      5.7399999999999949      37.309999999999995      48.789999999999992
    95   1       7.174999999999998      38.744999999999997      50.224999999999994
    96   1      5.7399999999999949      37.309999999999995      51.659999999999989
    97   1       7.174999999999998      38.744999999999997      53.094999999999999
    98   1       7.174999999999998      38.744999999999997      55.964999999999989
    99   1       7.174999999999998      41.614999999999995      38.744999999999997
   100   1       7.174999999999998      41.614999999999995      41.614999999999995
   101   1      5.7399999999999949      40.179999999999993       43.04999999999999
   102   1       7.174999999999998      41.614999999999995      44.484999999999999
   103   1      5.7399999999999949      40.179999999999993      45.919999999999995
   104   1       7.174999999999998      41.614999999999995      47.354999999999997
   105   1      5.7399999999999949      40.179999999999993      48.789999999999992
   106   1       7.174999999999998      41.614999999999995      50.224999999999994
   107   1      5.7399999999999949      40.179999999999993      51.659999999999989
   108   1       7.174999999999998      41.614999999999995      53.094999999999999
   109   1      5.7399999999999949      40.179999999999993      54.529999999999994
   110   1       7.174999999999998      41.614999999999995      55.964999999999989
   111   1       7.174999999999998      41.614999999999995      58.835000000000001
   112   1       7.174999999999998      44.484999999999999                  35.875
   113   1       7.174999999999998      44.484999999999999      38.744999999999997
   114   1      5.7399999999999949       43.04999999999999      40.179999999999993
   115   1       7.174999999999998      44.484999999999999      41.614999999999995
   116   1      5.7399999999999949       43.04999999999999       43.04999999999999
   117   1       7.174999999999998      44.484999999999999      44.484999999999999
   118   1      5.7399999999999949       43.04999999999999      45.919999999999995
   119   1       7.174999999999998      44.484999999999999      47.354999999999997
   120   1      5.7399999999999949       43.04999999999999      48.789999999999992
   121   1       7.174999999999998      44.484999999999999      50.224999999999994
   122   1      5.7399999999999949       43.04999999999999      51.659999999999989
   123   1       7.174999999999998      44.484999999999999      53.094999999999999
   124   1      5.7399999999999949       43.04999999999999      54.529999999999994
   125   1       7.174999999999998      44.484999999999999      55.964999999999989
   126   1      5.7399999999999949       43.04999999999999      57.399999999999999
   127   1       7.174999999999998      44.484999999999999      58.835000000000001
   128   1       7.174999999999998      44.484999999999999      61.704999999999991
   129   1       7.174999999999998      47.354999999999997      33.005000000000003
   130   1       7.174999999999998      47.354999999999997                  35.875
   131   1      5.7399999999999949      45.919999999999995      37.309999999999995
   132   1       7.174999999999998      47.354999999999997      38.744999999999997
   133   1      5.7399999999999949      45.919999999999995      40.179999999999993
   134   1       7.174999999999998      47.354999999999997      41.614999999999995
   135   1      5.7399999999999949      45.919999999999995       43.04999999999999
   136   1       7.174999999999998      47.354999999999997      44.484999999999999
   137   1      5.7399999999999949      45.919999999999995      45.919999999999995
   138   1       7.174999999999998      47.354999999999997      47.354999999999997
   139   1      5.7399999999999949      45.919999999999995      48.789999999999992
   140   1       7.174999999999998      47.354999999999997      50.224999999999994
   141   1      5.7399999999999949      45.919999999999995      51.659999999999989
   142   1       7.174999999999998      47.354999999999997      53.094999999999999
   143   1      5.7399999999999949      45.919999999999995      54.529999999999994
   144   1       7.174999999999998      47.354999999999997      55.964999999999989
   145   1      5.7399999999999949      45.919999999999995      57.399999999999999
   146   1       7.174999999999998      47.354999999999997      58.835000000000001
   147   1      5.7399999999999949      45.919999999999995      60.269999999999996
   148   1       7.174999999999998      47.354999999999997      61.704999999999991
   149   1       7.174999999999998      47.354999999999997      64.574999999999989
   150   1       7.174999999999998      50.224999999999994      33.005000000000003
   151   1      5.7399999999999949      48.789999999999992      34.439999999999991
   152   1       7.174999999999998      50.224999999999994                  35.875
   153   1      5.7399999999999949      48.789999999999992      37.309999999999995
   154   1       7.174999999999998      50.224999999999994      38.744999999999997
   155   1      5.7399999999999949      48.789999999999992      40.179999999999993
   156   1       7.174999999999998      50.224999999999994      41.614999999999995
   157   1      5.7399999999999949      48.789999999999992       43.04999999999999
   158   1       7.174999999999998      50.224999999999994      44.484999999999999
   159   1      5.7399999999999949      48.789999999999992      45.919999999999995
   160   1       7.174999999999998      50.224999999999994      47.354999999999997
   161   1      5.7399999999999949      48.789999999999992      48.789999999999992
   162   1       7.174999999999998      50.224999999999994      50.224999999999994
   163   1      5.7399999999999949      48.789999999999992      51.659999999999989
   164   1       7.174999999999998      50.224999999999994      53.094999999999999
   165   1      5.7399999999999949      48.789999999999992      54.529999999999994
   166   1       7.174999999999998      50.224999999999994      55.964999999999989
   167   1      5.7399999999999949      48.789999999999992      57.399999999999999
   168   1       7.174999999999998      50.224999999999994      58.835000000000001
   169   1      5.7399999999999949      48.789999999999992      60.269999999999996
   170   1       7.174999999999998      50.224999999999994      61.704999999999991
   171   1      5.7399999999999949      48.789999999999992      63.139999999999986
   172   1       7.174999999999998      50.224999999999994      64.574999999999989
   173   1       7.174999999999998      53.094999999999999                  35.875
   174   1      5.7399999999999949      51.659999999999989      37.309999999999995
   175   1       7.174999999999998      53.094999999999999      38.744999999999997
   176   1      5.7399999999999949      51.659999999999989      40.179999999999993
   177   1       7.174999999999998      53.094999999999999      41.614999999999995
   178   1      5.7399999999999949      51.659999999999989       43.04999999999999
   179   1       7.174999999999998      53.094999999999999      44.484999999999999
   180   1      5.7399999999999949      51.659999999999989      45.919999999999995
   181   1       7.174999999999998      53.094999999999999      47.354999999999997
   182   1      5.7399999999999949      51.659999999999989      48.789999999999992
   183   1       7.174999999999998      53.094999999999999      50.224999999999994
   184   1      5.7399999999999949      51.659999999999989      51.659999999999989
   185   1       7.174999999999998      53.094999999999999      53.094999999999999
   186   1      5.7399999999999949      51.659999999999989      54.529999999999994
   187   1       7.174999999999998      53.094999999999999      55.964999999999989
   188   1      5.7399999999999949      51.659999999999989      57.399999999999999
   189   1       7.174999999999998      53.094999999999999      58.835000000000001
   190   1      5.7399999999999949      51.659999999999989      60.269999999999996
   191   1       7.174999999999998      53.094999999999999      61.704999999999991
   192   1       7.174999999999998      55.964999999999989      38.744999999999997
   193   1      5.7399999999999949      54.529999999999994      40.179999999999993
   194   1       7.174999999999998      55.964999999999989      41.614999999999995
   195   1      5.7399999999999949      54.529999999999994       43.04999999999999
   196   1       7.174999999999998      55.964999999999989      44.484999999999999
   197   1      5.7399999999999949      54.529999999999994      45.919999999999995
   198   1       7.174999999999998      55.964999999999989      47.354999999999997
   199   1      5.7399999999999949      54.529999999999994      48.789999999999992
   200   1       7.174999999999998      55.964999999999989      50.224999999999994
   201   1      5.7399999999999949      54.529999999999994      51.659999999999989
   202   1       7.174999999999998      55.964999999999989      53.094999999999999
   203   1      5.7399999999999949      54.529999999999994      54.529999999999994
   204   1       7.174999999999998      55.964999999999989      55.964999999999989
   205   1      5.7399999999999949      54.529999999999994      57.399999999999999
   206   1       7.174999999999998      55.964999999999989      58.835000000000001
   207   1       7.174999999999998      58.835000000000001      41.614999999999995
   208   1      5.7399999999999949      57.399999999999999       43.04999999999999
   209   1       7.174999999999998      58.835000000000001      44.484999999999999
   210   1      5.7399999999999949      57.399999999999999      45.919999999999995
   211   1       7.174999999999998      58.835000000000001      47.354999999999997
   212   1      5.7399999999999949      57.399999999999999      48.789999999999992
   213   1       7.174999999999998      58.835000000000001      50.224999999999994
   214   1      5.7399999999999949      57.399999999999999      51.659999999999989
   215   1       7.174999999999998      58.835000000000001      53.094999999999999
   216   1      5.7399999999999949      57.399999999999999      54.529999999999994
   217   1       7.174999999999998      58.835000000000001      55.964999999999989
   218   1       7.174999999999998      61.704999999999991      44.484999999999999
   219   1      5.7399999999999949      60.269999999999996      45.919999999999995
   220   1       7.174999999999998      61.704999999999991      47.354999999999997
   221   1      5.7399999999999949      60.269999999999996      48.789999999999992
   222   1       7.174999999999998      61.704999999999991      50.224999999999994
   223   1      5.7399999999999949      60.269999999999996      51.659999999999989
   224   1       7.174999999999998      61.704999999999991      53.094999999999999
   225   1       7.174999999999998      64.574999999999989      47.354999999999997
   226   1      5.7399999999999949      63.139999999999986      48.789999999999992
   227   1       7.174999999999998      64.574999999999989      50.224999999999994
   228   1      10.044999999999996       27.26499999999999      47.354999999999997
   229   1      10.044999999999996       27.26499999999999      50.224999999999994
   230   1      10.044999999999996      30.134999999999994      44.484999999999999
   231   1      10.044999999999996      30.134999999999994      47.354999999999997
   232   1      8.6099999999999941      28.699999999999992      48.789999999999992
   233   1      10.044999999999996      30.134999999999994      50.224999999999994
   234   1      10.044999999999996      30.134999999999994      53.094999999999999
   235   1      10.044999999999996      33.005000000000003      41.614999999999995
   236   1      10.044999999999996      33.005000000000003      44.484999999999999
   237   1      8.6099999999999941      31.569999999999993      45.919999999999995
   238   1      10.044999999999996      33.005000000000003      47.354999999999997
   239   1      8.6099999999999941      31.569999999999993      48.789999999999992
   240   1      10.044999999999996      33.005000000000003      50.224999999999994
   241   1      8.6099999999999941      31.569999999999993      51.659999999999989
   242   1      10.044999999999996      33.005000000000003      53.094999999999999
   243   1      10.044999999999996      33.005000000000003      55.964999999999989
   244   1      10.044999999999996                  35.875      38.744999999999997
   245   1      10.044999999999996                  35.875      41.614999999999995
   246   1      8.6099999999999941      34.439999999999991       43.04999999999999
   247   1      10.044999999999996                  35.875      44.484999999999999
   248   1      8.6099999999999941      34.439999999999991      45.919999999999995
   249   1      10.044999999999996                  35.875      47.354999999999997
   250   1      8.6099999999999941      34.439999999999991      48.789999999999992
   251   1      10.044999999999996                  35.875      50.224999999999994
   252   1      8.6099999999999941      34.439999999999991      51.659999999999989
   253   1      10.044999999999996                  35.875      53.094999999999999
   254   1      8.6099999999999941      34.439999999999991      54.529999999999994
   255   1      10.044999999999996                  35.875      55.964999999999989
   256   1      10.044999999999996                  35.875      58.835000000000001
   257   1      10.044999999999996      38.744999999999997                  35.875
   258   1      10.044999999999996      38.744999999999997      38.744999999999997
   259   1      8.6099999999999941      37.309999999999995      40.179999999999993
   260   1      10.044999999999996      38.744999999999997      41.614999999999995
   261   1      8.6099999999999941      37.309999999999995       43.04999999999999
   262   1      10.044999999999996      38.744999999999997      44.484999999999999
   263   1      8.6099999999999941      37.309999999999995      45.919999999999995
   264   1      10.044999999999996      38.744999999999997      47.354999999999997
   265   1      8.6099999999999941      37.309999999999995      48.789999999999992
   266   1      10.044999999999996      38.744999999999997      50.224999999999994
   267   1      8.6099999999999941      37.309999999999995      51.659999999999989
   268   1      10.044999999999996      38.744999999999997      53.094999999999999
   269   1      8.6099999999999941      37.309999999999995      54.529999999999994
   270   1      10.044999999999996      38.744999999999997      55.964999999999989
   271   1      8.6099999999999941      37.309999999999995      57.399999999999999
   272   1      10.044999999999996      38.744999999999997      58.835000000000001
   273   1      10.044999999999996      38.744999999999997      61.704999999999991
   274   1      10.044999999999996      41.614999999999995      33.005000000000003
   275   1      10.044999999999996      41.614999999999995                  35.875
   276   1      8.6099999999999941      40.179999999999993      37.309999999999995
   277   1      10.044999999999996      41.614999999999995      38.744999999999997
   278   1      8.6099999999999941      40.179999999999993      40.179999999999993
   279   1      10.044999999999996      41.614999999999995      41.614999999999995
   280   1      8.6099999999999941      40.179999999999993       43.04999999999999
   281   1      10.044999999999996      41.614999999999995      44.484999999999999
   282   1      8.6099999999999941      40.179999999999993      45.919999999999995
   283   1      10.044999999999996      41.614999999999995      47.354999999999997
   284   1      8.6099999999999941      40.179999999999993      48.789999999999992
   285   1      10.044999999999996      41.614999999999995      50.224999999999994
   286   1      8.6099999999999941      40.179999999999993      51.659999999999989
   287   1      10.044999999999996      41.614999999999995      53.094999999999999
   288   1      8.6099999999999941      40.179999999999993      54.529999999999994
   289   1      10.044999999999996      41.614999999999995      55.964999999999989
   290   1      8.6099999999999941      40.179999999999993      57.399999999999999
   291   1      10.044999999999996      41.614999999999995      58.835000000000001
   292   1      8.6099999999999941      40.179999999999993      60.269999999999996
   293   1      10.044999999999996      41.614999999999995      61.704999999999991
   294   1      10.044999999999996      41.614999999999995      64.574999999999989
   295   1      10.044999999999996      44.484999999999999      30.134999999999994
   296   1      10.044999999999996      44.484999999999999      33.005000000000003
   297   1      8.6099999999999941       43.04999999999999      34.439999999999991
   298   1      10.044999999999996      44.484999999999999                  35.875
   299   1      8.6099999999999941       43.04999999999999      37.309999999999995
   300   1      10.044999999999996      44.484999999999999      38.744999999999997
   301   1      8.6099999999999941       43.04999999999999      40.179999999999993
   302   1      10.044999999999996      44.484999999999999      41.614999999999995
   303   1      8.6099999999999941       43.04999999999999       43.04999999999999
   304   1      10.044999999999996      44.484999999999999      44.484999999999999
   305   1      8.6099999999999941       43.04999999999999      45.919999999999995
   306   1      10.044999999999996      44.484999999999999      47.354999999999997
   307   1      8.6099999999999941       43.04999999999999      48.789999999999992
   308   1      10.044999999999996      44.484999999999999      50.224999999999994
   309   1      8.6099999999999941       43.04999999999999      51.659999999999989
   310   1      10.044999999999996      44.484999999999999      53.094999999999999
   311   1      8.6099999999999941       43.04999999999999      54.529999999999994
   312   1      10.044999999999996      44.484999999999999      55.964999999999989
   313   1      8.6099999999999941       43.04999999999999      57.399999999999999
   314   1      10.044999999999996      44.484999999999999      58.835000000000001
   315   1      8.6099999999999941       43.04999999999999      60.269999999999996
   316   1      10.044999999999996      44.484999999999999      61.704999999999991
   317   1      8.6099999999999941       43.04999999999999      63.139999999999986
   318   1      10.044999999999996      44.484999999999999      64.574999999999989
   319   1      10.044999999999996      44.484999999999999      67.444999999999993
   320   1      10.044999999999996      47.354999999999997       27.26499999999999
   321   1      10.044999999999996      47.354999999999997      30.134999999999994
   322   1      8.6099999999999941      45.919999999999995      31.569999999999993
   323   1      10.044999999999996      47.354999999999997      33.005000000000003
   324   1      8.6099999999999941      45.919999999999995      34.439999999999991
   325   1      10.044999999999996      47.354999999999997                  35.875
   326   1      8.6099999999999941      45.919999999999995      37.309999999999995
   327   1      10.044999999999996      47.354999999999997      38.744999999999997
   328   1      8.6099999999999941      45.919999999999995      40.179999999999993
   329   1      10.044999999999996      47.354999999999997      41.614999999999995
   330   1      8.6099999999999941      45.919999999999995       43.04999999999999
   331   1      10.044999999999996      47.354999999999997      44.484999999999999
   332   1      8.6099999999999941      45.919999999999995      45.919999999999995
   333   1      10.044999999999996      47.354999999999997      47.354999999999997
   334   1      8.6099999999999941      45.919999999999995      48.789999999999992
   335   1      10.044999999999996      47.354999999999997      50.224999999999994
   336   1      8.6099999999999941      45.919999999999995      51.659999999999989
   337   1      10.044999999999996      47.354999999999997      53.094999999999999
   338   1      8.6099999999999941      45.919999999999995      54.529999999999994
   339   1      10.044999999999996      47.354999999999997      55.964999999999989
   340   1      8.6099999999999941      45.919999999999995      57.399999999999999
   341   1      10.044999999999996      47.354999999999997      58.835000000000001
   342   1      8.6099999999999941      45.919999999999995      60.269999999999996
   343   1      10.044999999999996      47.354999999999997      61.704999999999991
   344   1      8.6099999999999941      45.919999999999995      63.139999999999986
   345   1      10.044999999999996      47.354999999999997      64.574999999999989
   346   1      8.6099999999999941      45.919999999999995      66.010000000000005
   347   1      10.044999999999996      47.354999999999997      67.444999999999993
   348   1      10.044999999999996      47.354999999999997      70.314999999999984
   349   1      10.044999999999996      50.224999999999994       27.26499999999999
   350   1      8.6099999999999941      48.789999999999992      28.699999999999992
   351   1      10.044999999999996      50.224999999999994      30.134999999999994
   352   1      8.6099999999999941      48.789999999999992      31.569999999999993
   353   1      10.044999999999996      50.224999999999994      33.005000000000003
   354   1      8.6099999999999941      48.789999999999992      34.439999999999991
   355   1      10.044999999999996      50.224999999999994                  35.875
   356   1      8.6099999999999941      48.789999999999992      37.309999999999995
   357   1      10.044999999999996      50.224999999999994      38.744999999999997
   358   1      8.6099999999999941      48.789999999999992      40.179999999999993