model_files/CuAu/CuAu_30000/CuAu_210/CuAu_210_fcc_30389_temp.data (written by ASE) 

30389 	 atoms 
2  atom types
0.0                      95  xlo xhi
0.0                      95  ylo yhi
0.0                      95  zlo zhi


Atoms 

     1   1      94.999999999999986      44.879999999999995                   46.75
     2   1      94.999999999999986                   46.75      44.879999999999995
     3   1      94.999999999999986                   46.75       48.61999999999999
     4   1      94.999999999999986       48.61999999999999                   46.75
     5   1      3.7399999999999949      37.399999999999999      39.269999999999996
     6   1      3.7399999999999949      37.399999999999999      43.009999999999998
     7   1      3.7399999999999949      37.399999999999999                   46.75
     8   1      3.7399999999999949      37.399999999999999      50.489999999999988
     9   1      3.7399999999999949      37.399999999999999       54.22999999999999
    10   1      3.7399999999999949      39.269999999999996      37.399999999999999
    11   1      1.8699999999999974      41.139999999999993      41.139999999999993
    12   1      3.7399999999999949      39.269999999999996      41.139999999999993
    13   1      3.7399999999999949      41.139999999999993      39.269999999999996
    14   1      1.8699999999999974      41.139999999999993      44.879999999999995
    15   1      3.7399999999999949      39.269999999999996      44.879999999999995
    16   1      3.7399999999999949      41.139999999999993      43.009999999999998
    17   1      1.8699999999999974      41.139999999999993       48.61999999999999
    18   1      3.7399999999999949      39.269999999999996       48.61999999999999
    19   1      3.7399999999999949      41.139999999999993                   46.75
    20   1      1.8699999999999974      41.139999999999993      52.359999999999985
    21   1      3.7399999999999949      39.269999999999996      52.359999999999985
    22   1      3.7399999999999949      41.139999999999993      50.489999999999988
    23   1      3.7399999999999949      39.269999999999996      56.099999999999987
    24   1      3.7399999999999949      41.139999999999993       54.22999999999999
    25   1      3.7399999999999949      43.009999999999998      37.399999999999999
    26   1      1.8699999999999974      44.879999999999995      41.139999999999993
    27   1      3.7399999999999949      43.009999999999998      41.139999999999993
    28   1      3.7399999999999949      44.879999999999995      39.269999999999996
    29   1      1.8699999999999974      43.009999999999998      43.009999999999998
    30   1      1.8699999999999974      44.879999999999995      44.879999999999995
    31   1      3.7399999999999949      43.009999999999998      44.879999999999995
    32   1      3.7399999999999949      44.879999999999995      43.009999999999998
    33   1      1.8699999999999974      43.009999999999998                   46.75
    34   1      1.8699999999999974      44.879999999999995       48.61999999999999
    35   1      3.7399999999999949      43.009999999999998       48.61999999999999
    36   1      3.7399999999999949      44.879999999999995                   46.75
    37   1      1.8699999999999974      43.009999999999998      50.489999999999988
    38   1      1.8699999999999974      44.879999999999995      52.359999999999985
    39   1      3.7399999999999949      43.009999999999998      52.359999999999985
    40   1      3.7399999999999949      44.879999999999995      50.489999999999988
    41   1      3.7399999999999949      43.009999999999998      56.099999999999987
    42   1      3.7399999999999949      44.879999999999995       54.22999999999999
    43   1      3.7399999999999949                   46.75      37.399999999999999
    44   1      1.8699999999999974       48.61999999999999      41.139999999999993
    45   1      3.7399999999999949                   46.75      41.139999999999993
    46   1      3.7399999999999949       48.61999999999999      39.269999999999996
    47   1      1.8699999999999974                   46.75      43.009999999999998
    48   1      1.8699999999999974       48.61999999999999      44.879999999999995
    49   1      3.7399999999999949                   46.75      44.879999999999995
    50   1      3.7399999999999949       48.61999999999999      43.009999999999998
    51   1      1.8699999999999974                   46.75                   46.75
    52   1      1.8699999999999974       48.61999999999999       48.61999999999999
    53   1      3.7399999999999949                   46.75       48.61999999999999
    54   1      3.7399999999999949       48.61999999999999                   46.75
    55   1      1.8699999999999974                   46.75      50.489999999999988
    56   1      1.8699999999999974       48.61999999999999      52.359999999999985
    57   1      3.7399999999999949                   46.75      52.359999999999985
    58   1      3.7399999999999949       48.61999999999999      50.489999999999988
    59   1      3.7399999999999949                   46.75      56.099999999999987
    60   1      3.7399999999999949       48.61999999999999       54.22999999999999
    61   1      3.7399999999999949      50.489999999999988      37.399999999999999
    62   1      1.8699999999999974      52.359999999999985      41.139999999999993
    63   1      3.7399999999999949      50.489999999999988      41.139999999999993
    64   1      3.7399999999999949      52.359999999999985      39.269999999999996
    65   1      1.8699999999999974      50.489999999999988      43.009999999999998
    66   1      1.8699999999999974      52.359999999999985      44.879999999999995
    67   1      3.7399999999999949      50.489999999999988      44.879999999999995
    68   1      3.7399999999999949      52.359999999999985      43.009999999999998
    69   1      1.8699999999999974      50.489999999999988                   46.75
    70   1      1.8699999999999974      52.359999999999985       48.61999999999999
    71   1      3.7399999999999949      50.489999999999988       48.61999999999999
    72   1      3.7399999999999949      52.359999999999985                   46.75
    73   1      1.8699999999999974      50.489999999999988      50.489999999999988
    74   1      1.8699999999999974      52.359999999999985      52.359999999999985
    75   1      3.7399999999999949      50.489999999999988      52.359999999999985
    76   1      3.7399999999999949      52.359999999999985      50.489999999999988
    77   1      3.7399999999999949      50.489999999999988      56.099999999999987
    78   1      3.7399999999999949      52.359999999999985       54.22999999999999
    79   1      3.7399999999999949       54.22999999999999      37.399999999999999
    80   1      3.7399999999999949       54.22999999999999      41.139999999999993
    81   1      3.7399999999999949      56.099999999999987      39.269999999999996
    82   1      3.7399999999999949       54.22999999999999      44.879999999999995
    83   1      3.7399999999999949      56.099999999999987      43.009999999999998
    84   1      3.7399999999999949       54.22999999999999       48.61999999999999
    85   1      3.7399999999999949      56.099999999999987                   46.75
    86   1      3.7399999999999949       54.22999999999999      52.359999999999985
    87   1      3.7399999999999949      56.099999999999987      50.489999999999988
    88   1      3.7399999999999949       54.22999999999999      56.099999999999987
    89   1      3.7399999999999949      56.099999999999987       54.22999999999999
    90   1       7.479999999999996      29.919999999999995      31.789999999999996
    91   1       7.479999999999996      29.919999999999995      35.530000000000001
    92   1       7.479999999999996      29.919999999999995      39.269999999999996
    93   1       7.479999999999996      29.919999999999995      43.009999999999998
    94   1       7.479999999999996      29.919999999999995                   46.75
    95   1       7.479999999999996      29.919999999999995      50.489999999999988
    96   1       7.479999999999996      29.919999999999995       54.22999999999999
    97   1       7.479999999999996      29.919999999999995      57.969999999999999
    98   1       7.479999999999996      29.919999999999995      61.710000000000001
    99   1       7.479999999999996      31.789999999999996      29.919999999999995
   100   1      5.6099999999999994      33.659999999999997      33.659999999999997
   101   1       7.479999999999996      31.789999999999996      33.659999999999997
   102   1       7.479999999999996      33.659999999999997      31.789999999999996
   103   1      5.6099999999999994      33.659999999999997      37.399999999999999
   104   1       7.479999999999996      31.789999999999996      37.399999999999999
   105   1       7.479999999999996      33.659999999999997      35.530000000000001
   106   1      5.6099999999999994      33.659999999999997      41.139999999999993
   107   1       7.479999999999996      31.789999999999996      41.139999999999993
   108   1       7.479999999999996      33.659999999999997      39.269999999999996
   109   1      5.6099999999999994      33.659999999999997      44.879999999999995
   110   1       7.479999999999996      31.789999999999996      44.879999999999995
   111   1       7.479999999999996      33.659999999999997      43.009999999999998
   112   1      5.6099999999999994      33.659999999999997       48.61999999999999
   113   1       7.479999999999996      31.789999999999996       48.61999999999999
   114   1       7.479999999999996      33.659999999999997                   46.75
   115   1      5.6099999999999994      33.659999999999997      52.359999999999985
   116   1       7.479999999999996      31.789999999999996      52.359999999999985
   117   1       7.479999999999996      33.659999999999997      50.489999999999988
   118   1      5.6099999999999994      33.659999999999997      56.099999999999987
   119   1       7.479999999999996      31.789999999999996      56.099999999999987
   120   1       7.479999999999996      33.659999999999997       54.22999999999999
   121   1      5.6099999999999994      33.659999999999997      59.839999999999989
   122   1       7.479999999999996      31.789999999999996      59.839999999999989
   123   1       7.479999999999996      33.659999999999997      57.969999999999999
   124   1       7.479999999999996      31.789999999999996      63.579999999999991
   125   1       7.479999999999996      33.659999999999997      61.710000000000001
   126   1       7.479999999999996      35.530000000000001      29.919999999999995
   127   1      5.6099999999999994      37.399999999999999      33.659999999999997
   128   1       7.479999999999996      35.530000000000001      33.659999999999997
   129   1       7.479999999999996      37.399999999999999      31.789999999999996
   130   1      5.6099999999999994      35.530000000000001      35.530000000000001
   131   1      5.6099999999999994      37.399999999999999      37.399999999999999
   132   1       7.479999999999996      35.530000000000001      37.399999999999999
   133   1       7.479999999999996      37.399999999999999      35.530000000000001
   134   1      5.6099999999999994      35.530000000000001      39.269999999999996
   135   1      5.6099999999999994      37.399999999999999      41.139999999999993
   136   1       7.479999999999996      35.530000000000001      41.139999999999993
   137   1       7.479999999999996      37.399999999999999      39.269999999999996
   138   1      5.6099999999999994      35.530000000000001      43.009999999999998
   139   1      5.6099999999999994      37.399999999999999      44.879999999999995
   140   1       7.479999999999996      35.530000000000001      44.879999999999995
   141   1       7.479999999999996      37.399999999999999      43.009999999999998
   142   1      5.6099999999999994      35.530000000000001                   46.75
   143   1      5.6099999999999994      37.399999999999999       48.61999999999999
   144   1       7.479999999999996      35.530000000000001       48.61999999999999
   145   1       7.479999999999996      37.399999999999999                   46.75
   146   1      5.6099999999999994      35.530000000000001      50.489999999999988
   147   1      5.6099999999999994      37.399999999999999      52.359999999999985
   148   1       7.479999999999996      35.530000000000001      52.359999999999985
   149   1       7.479999999999996      37.399999999999999      50.489999999999988
   150   1      5.6099999999999994      35.530000000000001       54.22999999999999
   151   1      5.6099999999999994      37.399999999999999      56.099999999999987
   152   1       7.479999999999996      35.530000000000001      56.099999999999987
   153   1       7.479999999999996      37.399999999999999       54.22999999999999
   154   1      5.6099999999999994      35.530000000000001      57.969999999999999
   155   1      5.6099999999999994      37.399999999999999      59.839999999999989
   156   1       7.479999999999996      35.530000000000001      59.839999999999989
   157   1       7.479999999999996      37.399999999999999      57.969999999999999
   158   1       7.479999999999996      35.530000000000001      63.579999999999991
   159   1       7.479999999999996      37.399999999999999      61.710000000000001
   160   1       7.479999999999996      39.269999999999996      29.919999999999995
   161   1      5.6099999999999994      41.139999999999993      33.659999999999997
   162   1       7.479999999999996      39.269999999999996      33.659999999999997
   163   1       7.479999999999996      41.139999999999993      31.789999999999996
   164   1      5.6099999999999994      39.269999999999996      35.530000000000001
   165   1      5.6099999999999994      41.139999999999993      37.399999999999999
   166   1       7.479999999999996      39.269999999999996      37.399999999999999
   167   1       7.479999999999996      41.139999999999993      35.530000000000001
   168   1      5.6099999999999994      39.269999999999996      39.269999999999996
   169   1      5.6099999999999994      41.139999999999993      41.139999999999993
   170   1       7.479999999999996      39.269999999999996      41.139999999999993
   171   1       7.479999999999996      41.139999999999993      39.269999999999996
   172   1      5.6099999999999994      39.269999999999996      43.009999999999998
   173   1      5.6099999999999994      41.139999999999993      44.879999999999995
   174   1       7.479999999999996      39.269999999999996      44.879999999999995
   175   1       7.479999999999996      41.139999999999993      43.009999999999998
   176   1      5.6099999999999994      39.269999999999996                   46.75
   177   1      5.6099999999999994      41.139999999999993       48.61999999999999
   178   1       7.479999999999996      39.269999999999996       48.61999999999999
   179   1       7.479999999999996      41.139999999999993                   46.75
   180   1      5.6099999999999994      39.269999999999996      50.489999999999988
   181   1      5.6099999999999994      41.139999999999993      52.359999999999985
   182   1       7.479999999999996      39.269999999999996      52.359999999999985
   183   1       7.479999999999996      41.139999999999993      50.489999999999988
   184   1      5.6099999999999994      39.269999999999996       54.22999999999999
   185   1      5.6099999999999994      41.139999999999993      56.099999999999987
   186   1       7.479999999999996      39.269999999999996      56.099999999999987
   187   1       7.479999999999996      41.139999999999993       54.22999999999999
   188   1      5.6099999999999994      39.269999999999996      57.969999999999999
   189   1      5.6099999999999994      41.139999999999993      59.839999999999989
   190   1       7.479999999999996      39.269999999999996      59.839999999999989
   191   1       7.479999999999996      41.139999999999993      57.969999999999999
   192   1       7.479999999999996      39.269999999999996      63.579999999999991
   193   1       7.479999999999996      41.139999999999993      61.710000000000001
   194   1       7.479999999999996      43.009999999999998      29.919999999999995
   195   1      5.6099999999999994      44.879999999999995      33.659999999999997
   196   1       7.479999999999996      43.009999999999998      33.659999999999997
   197   1       7.479999999999996      44.879999999999995      31.789999999999996
   198   1      5.6099999999999994      43.009999999999998      35.530000000000001
   199   1      5.6099999999999994      44.879999999999995      37.399999999999999
   200   1       7.479999999999996      43.009999999999998      37.399999999999999
   201   1       7.479999999999996      44.879999999999995      35.530000000000001
   202   1      5.6099999999999994      43.009999999999998      39.269999999999996
   203   1      5.6099999999999994      44.879999999999995      41.139999999999993
   204   1       7.479999999999996      43.009999999999998      41.139999999999993
   205   1       7.479999999999996      44.879999999999995      39.269999999999996
   206   1      5.6099999999999994      43.009999999999998      43.009999999999998
   207   1      5.6099999999999994      44.879999999999995      44.879999999999995
   208   1       7.479999999999996      43.009999999999998      44.879999999999995
   209   1       7.479999999999996      44.879999999999995      43.009999999999998
   210   1      5.6099999999999994      43.009999999999998                   46.75
   211   1      5.6099999999999994      44.879999999999995       48.61999999999999
   212   1       7.479999999999996      43.009999999999998       48.61999999999999
   213   1       7.479999999999996      44.879999999999995                   46.75
   214   1      5.6099999999999994      43.009999999999998      50.489999999999988
   215   1      5.6099999999999994      44.879999999999995      52.359999999999985
   216   1       7.479999999999996      43.009999999999998      52.359999999999985
   217   1       7.479999999999996      44.879999999999995      50.489999999999988
   218   1      5.6099999999999994      43.009999999999998       54.22999999999999
   219   1      5.6099999999999994      44.879999999999995      56.099999999999987
   220   1       7.479999999999996      43.009999999999998      56.099999999999987
   221   1       7.479999999999996      44.879999999999995       54.22999999999999
   222   1      5.6099999999999994      43.009999999999998      57.969999999999999
   223   1      5.6099999999999994      44.879999999999995      59.839999999999989
   224   1       7.479999999999996      43.009999999999998      59.839999999999989
   225   1       7.479999999999996      44.879999999999995      57.969999999999999
   226   1       7.479999999999996      43.009999999999998      63.579999999999991
   227   1       7.479999999999996      44.879999999999995      61.710000000000001
   228   1       7.479999999999996                   46.75      29.919999999999995
   229   1      5.6099999999999994       48.61999999999999      33.659999999999997
   230   1       7.479999999999996                   46.75      33.659999999999997
   231   1       7.479999999999996       48.61999999999999      31.789999999999996
   232   1      5.6099999999999994                   46.75      35.530000000000001
   233   1      5.6099999999999994       48.61999999999999      37.399999999999999
   234   1       7.479999999999996                   46.75      37.399999999999999
   235   1       7.479999999999996       48.61999999999999      35.530000000000001
   236   1      5.6099999999999994                   46.75      39.269999999999996
   237   1      5.6099999999999994       48.61999999999999      41.139999999999993
   238   1       7.479999999999996                   46.75      41.139999999999993
   239   1       7.479999999999996       48.61999999999999      39.269999999999996
   240   1      5.6099999999999994                   46.75      43.009999999999998
   241   1      5.6099999999999994       48.61999999999999      44.879999999999995
   242   1       7.479999999999996                   46.75      44.879999999999995
   243   1       7.479999999999996       48.61999999999999      43.009999999999998
   244   1      5.6099999999999994                   46.75                   46.75
   245   1      5.6099999999999994       48.61999999999999       48.61999999999999
   246   1       7.479999999999996                   46.75       48.61999999999999
   247   1       7.479999999999996       48.61999999999999                   46.75
   248   1      5.6099999999999994                   46.75      50.489999999999988
   249   1      5.6099999999999994       48.61999999999999      52.359999999999985
   250   1       7.479999999999996                   46.75      52.359999999999985
   251   1       7.479999999999996       48.61999999999999      50.489999999999988
   252   1      5.6099999999999994                   46.75       54.22999999999999
   253   1      5.6099999999999994       48.61999999999999      56.099999999999987
   254   1       7.479999999999996                   46.75      56.099999999999987
   255   1       7.479999999999996       48.61999999999999       54.22999999999999
   256   1      5.6099999999999994                   46.75      57.969999999999999
   257   1      5.6099999999999994       48.61999999999999      59.839999999999989
   258   1       7.479999999999996                   46.75      59.839999999999989
   259   1       7.479999999999996       48.61999999999999      57.969999999999999
   260   1       7.479999999999996                   46.75      63.579999999999991
   261   1       7.479999999999996       48.61999999999999      61.710000000000001
   262   1       7.479999999999996      50.489999999999988      29.919999999999995
   263   1      5.6099999999999994      52.359999999999985      33.659999999999997
   264   1       7.479999999999996      50.489999999999988      33.659999999999997
   265   1       7.479999999999996      52.359999999999985      31.789999999999996
   266   1      5.6099999999999994      50.489999999999988      35.530000000000001
   267   1      5.6099999999999994      52.359999999999985      37.399999999999999
   268   1       7.479999999999996      50.489999999999988      37.399999999999999
   269   1       7.479999999999996      52.359999999999985      35.530000000000001
   270   1      5.6099999999999994      50.489999999999988      39.269999999999996
   271   1      5.6099999999999994      52.359999999999985      41.139999999999993
   272   1       7.479999999999996      50.489999999999988      41.139999999999993
   273   1       7.479999999999996      52.359999999999985      39.269999999999996
   274   1      5.6099999999999994      50.489999999999988      43.009999999999998
   275   1      5.6099999999999994      52.359999999999985      44.879999999999995
   276   1       7.479999999999996      50.489999999999988      44.879999999999995
   277   1       7.479999999999996      52.359999999999985      43.009999999999998
   278   1      5.6099999999999994      50.489999999999988                   46.75
   279   1      5.6099999999999994      52.359999999999985       48.61999999999999
   280   1       7.479999999999996      50.489999999999988       48.61999999999999
   281   1       7.479999999999996      52.359999999999985                   46.75
   282   1      5.6099999999999994      50.489999999999988      50.489999999999988
   283   1      5.6099999999999994      52.359999999999985      52.359999999999985
   284   1       7.479999999999996      50.489999999999988      52.359999999999985
   285   1       7.479999999999996      52.359999999999985      50.489999999999988
   286   1      5.6099999999999994      50.489999999999988       54.22999999999999
   287   1      5.6099999999999994      52.359999999999985      56.099999999999987
   288   1       7.479999999999996      50.489999999999988      56.099999999999987
   289   1       7.479999999999996      52.359999999999985       54.22999999999999
   290   1      5.6099999999999994      50.489999999999988      57.969999999999999
   291   1      5.6099999999999994      52.359999999999985      59.839999999999989
   292   1       7.479999999999996      50.489999999999988      59.839999999999989
   293   1       7.479999999999996      52.359999999999985      57.969999999999999
   294   1       7.479999999999996      50.489999999999988      63.579999999999991
   295   1       7.479999999999996      52.359999999999985      61.710000000000001
   296   1       7.479999999999996       54.22999999999999      29.919999999999995
   297   1      5.6099999999999994      56.099999999999987      33.659999999999997
   298   1       7.479999999999996       54.22999999999999      33.659999999999997
   299   1       7.479999999999996      56.099999999999987      31.789999999999996
   300   1      5.6099999999999994       54.22999999999999      35.530000000000001
   301   1      5.6099999999999994      56.099999999999987      37.399999999999999
   302   1       7.479999999999996       54.22999999999999      37.399999999999999
   303   1       7.479999999999996      56.099999999999987      35.530000000000001
   304   1      5.6099999999999994       54.22999999999999      39.269999999999996
   305   1      5.6099999999999994      56.099999999999987      41.139999999999993
   306   1       7.479999999999996       54.22999999999999      41.139999999999993
   307   1       7.479999999999996      56.099999999999987      39.269999999999996
   308   1      5.6099999999999994       54.22999999999999      43.009999999999998
   309   1      5.6099999999999994      56.099999999999987      44.879999999999995
   310   1       7.479999999999996       54.22999999999999      44.879999999999995
   311   1       7.479999999999996      56.099999999999987      43.009999999999998
   312   1      5.6099999999999994       54.22999999999999                   46.75
   313   1      5.6099999999999994      56.099999999999987       48.61999999999999
   314   1       7.479999999999996       54.22999999999999       48.61999999999999
   315   1       7.479999999999996      56.099999999999987                   46.75
   316   1      5.6099999999999994       54.22999999999999      50.489999999999988
   317   1      5.6099999999999994      56.099999999999987      52.359999999999985
   318   1       7.479999999999996       54.22999999999999      52.359999999999985
   319   1       7.479999999999996      56.099999999999987      50.489999999999988
   320   1      5.6099999999999994       54.22999999999999       54.22999999999999
   321   1      5.6099999999999994      56.099999999999987      56.099999999999987
   322   1       7.479999999999996       54.22999999999999      56.099999999999987
   323   1       7.479999999999996      56.099999999999987       54.22999999999999
   324   1      5.6099999999999994       54.22999999999999      57.969999999999999
   325   1      5.6099999999999994      56.099999999999987      59.839999999999989
   326   1       7.479999999999996       54.22999999999999      59.839999999999989
   327   1       7.479999999999996      56.099999999999987      57.969999999999999
   328   1       7.479999999999996       54.22999999999999      63.579999999999991
   329   1       7.479999999999996      56.099999999999987      61.710000000000001
   330   1       7.479999999999996      57.969999999999999      29.919999999999995
   331   1      5.6099999999999994      59.839999999999989      33.659999999999997
   332   1       7.479999999999996      57.969999999999999      33.659999999999997
   333   1       7.479999999999996      59.839999999999989      31.789999999999996
   334   1      5.6099999999999994      57.969999999999999      35.530000000000001
   335   1      5.6099999999999994      59.839999999999989      37.399999999999999
   336   1       7.479999999999996      57.969999999999999      37.399999999999999
   337   1       7.479999999999996      59.839999999999989      35.530000000000001
   338   1      5.6099999999999994      57.969999999999999      39.269999999999996
   339   1      5.6099999999999994      59.839999999999989      41.139999999999993
   340   1       7.479999999999996      57.969999999999999      41.139999999999993
   341   1       7.479999999999996      59.839999999999989      39.269999999999996
   342   1      5.6099999999999994      57.969999999999999      43.009999999999998
   343   1      5.6099999999999994      59.839999999999989      44.879999999999995
   344   1       7.479999999999996      57.969999999999999      44.879999999999995
   345   1       7.479999999999996      59.839999999999989      43.009999999999998
   346   1      5.6099999999999994      57.969999999999999                   46.75
   347   1      5.6099999999999994      59.839999999999989       48.61999999999999
   348   1       7.479999999999996      57.969999999999999       48.61999999999999
   349   1       7.479999999999996      59.839999999999989                   46.75
   350   1      5.6099999999999994      57.969999999999999      50.489999999999988
   351   1      5.6099999999999994      59.839999999999989      52.359999999999985
   352   1       7.479999999999996      57.969999999999999      52.359999999999985
   353   1       7.479999999999996      59.839999999999989      50.489999999999988
   354   1      5.6099999999999994      57.969999999999999       54.22999999999999
   355   1      5.6099999999999994      59.839999999999989      56.099999999999987
   356   1       7.479999999999996      57.969999999999999      56.099999999999987
   357   1       7.479999999999996      59.839999999999989       54.22999999999999
   358   1      5.6099999999999994      57.969999999999999      57.969999999999999