model_files/Pt/Pt_30000/Pt_310/data.Pt_310_fcc_30527 (written by ASE) 

30527 	 atoms 
1  atom types
0.0                      90  xlo xhi
0.0                      90  ylo yhi
0.0                      90  zlo zhi


Atoms 

     1   1      89.999999999999986      41.159999999999997       43.11999999999999
     2   1      89.999999999999986       43.11999999999999      41.159999999999997
     3   1      89.999999999999986      41.159999999999997      47.039999999999992
     4   1      89.999999999999986       43.11999999999999      45.079999999999991
     5   1      89.999999999999986       43.11999999999999      48.999999999999993
     6   1      89.999999999999986      45.079999999999991       43.11999999999999
     7   1      89.999999999999986      47.039999999999992      41.159999999999997
     8   1      89.999999999999986      45.079999999999991      47.039999999999992
     9   1      89.999999999999986      47.039999999999992      45.079999999999991
    10   1      89.999999999999986      47.039999999999992      48.999999999999993
    11   1      89.999999999999986      48.999999999999993       43.11999999999999
    12   1      89.999999999999986      48.999999999999993      47.039999999999992
    13   1       3.919999999999995      29.399999999999995      31.359999999999996
    14   1       3.919999999999995      31.359999999999996      29.399999999999995
    15   1       3.919999999999995      29.399999999999995      35.279999999999994
    16   1       3.919999999999995      31.359999999999996      33.319999999999993
    17   1       3.919999999999995      29.399999999999995      39.199999999999996
    18   1       3.919999999999995      31.359999999999996      37.239999999999995
    19   1       3.919999999999995      29.399999999999995       43.11999999999999
    20   1       3.919999999999995      31.359999999999996      41.159999999999997
    21   1       3.919999999999995      29.399999999999995      47.039999999999992
    22   1       3.919999999999995      31.359999999999996      45.079999999999991
    23   1       3.919999999999995      29.399999999999995      50.959999999999994
    24   1       3.919999999999995      31.359999999999996      48.999999999999993
    25   1       3.919999999999995      29.399999999999995      54.879999999999988
    26   1       3.919999999999995      31.359999999999996      52.919999999999987
    27   1       3.919999999999995      29.399999999999995       58.79999999999999
    28   1       3.919999999999995      31.359999999999996      56.839999999999989
    29   1       3.919999999999995      31.359999999999996      60.759999999999991
    30   1       3.919999999999995      33.319999999999993      31.359999999999996
    31   1       3.919999999999995      35.279999999999994      29.399999999999995
    32   1      1.9599999999999937      35.279999999999994      35.279999999999994
    33   1       3.919999999999995      33.319999999999993      35.279999999999994
    34   1       3.919999999999995      35.279999999999994      33.319999999999993
    35   1      1.9599999999999937      35.279999999999994      39.199999999999996
    36   1       3.919999999999995      33.319999999999993      39.199999999999996
    37   1       3.919999999999995      35.279999999999994      37.239999999999995
    38   1      1.9599999999999937      35.279999999999994       43.11999999999999
    39   1       3.919999999999995      33.319999999999993       43.11999999999999
    40   1       3.919999999999995      35.279999999999994      41.159999999999997
    41   1      1.9599999999999937      35.279999999999994      47.039999999999992
    42   1       3.919999999999995      33.319999999999993      47.039999999999992
    43   1       3.919999999999995      35.279999999999994      45.079999999999991
    44   1      1.9599999999999937      35.279999999999994      50.959999999999994
    45   1       3.919999999999995      33.319999999999993      50.959999999999994
    46   1       3.919999999999995      35.279999999999994      48.999999999999993
    47   1      1.9599999999999937      35.279999999999994      54.879999999999988
    48   1       3.919999999999995      33.319999999999993      54.879999999999988
    49   1       3.919999999999995      35.279999999999994      52.919999999999987
    50   1       3.919999999999995      33.319999999999993       58.79999999999999
    51   1       3.919999999999995      35.279999999999994      56.839999999999989
    52   1       3.919999999999995      35.279999999999994      60.759999999999991
    53   1       3.919999999999995      37.239999999999995      31.359999999999996
    54   1       3.919999999999995      39.199999999999996      29.399999999999995
    55   1      1.9599999999999937      39.199999999999996      35.279999999999994
    56   1       3.919999999999995      37.239999999999995      35.279999999999994
    57   1       3.919999999999995      39.199999999999996      33.319999999999993
    58   1      1.9599999999999937      37.239999999999995      37.239999999999995
    59   1      1.9599999999999937      39.199999999999996      39.199999999999996
    60   1       3.919999999999995      37.239999999999995      39.199999999999996
    61   1       3.919999999999995      39.199999999999996      37.239999999999995
    62   1      1.9599999999999937      37.239999999999995      41.159999999999997
    63   1      1.9599999999999937      39.199999999999996       43.11999999999999
    64   1       3.919999999999995      37.239999999999995       43.11999999999999
    65   1       3.919999999999995      39.199999999999996      41.159999999999997
    66   1      1.9599999999999937      37.239999999999995      45.079999999999991
    67   1      1.9599999999999937      39.199999999999996      47.039999999999992
    68   1       3.919999999999995      37.239999999999995      47.039999999999992
    69   1       3.919999999999995      39.199999999999996      45.079999999999991
    70   1      1.9599999999999937      37.239999999999995      48.999999999999993
    71   1      1.9599999999999937      39.199999999999996      50.959999999999994
    72   1       3.919999999999995      37.239999999999995      50.959999999999994
    73   1       3.919999999999995      39.199999999999996      48.999999999999993
    74   1      1.9599999999999937      37.239999999999995      52.919999999999987
    75   1      1.9599999999999937      39.199999999999996      54.879999999999988
    76   1       3.919999999999995      37.239999999999995      54.879999999999988
    77   1       3.919999999999995      39.199999999999996      52.919999999999987
    78   1       3.919999999999995      37.239999999999995       58.79999999999999
    79   1       3.919999999999995      39.199999999999996      56.839999999999989
    80   1       3.919999999999995      39.199999999999996      60.759999999999991
    81   1       3.919999999999995      41.159999999999997      31.359999999999996
    82   1       3.919999999999995       43.11999999999999      29.399999999999995
    83   1      1.9599999999999937       43.11999999999999      35.279999999999994
    84   1       3.919999999999995      41.159999999999997      35.279999999999994
    85   1       3.919999999999995       43.11999999999999      33.319999999999993
    86   1      1.9599999999999937      41.159999999999997      37.239999999999995
    87   1      1.9599999999999937       43.11999999999999      39.199999999999996
    88   1       3.919999999999995      41.159999999999997      39.199999999999996
    89   1       3.919999999999995       43.11999999999999      37.239999999999995
    90   1      1.9599999999999937      41.159999999999997      41.159999999999997
    91   1      1.9599999999999937       43.11999999999999       43.11999999999999
    92   1       3.919999999999995      41.159999999999997       43.11999999999999
    93   1       3.919999999999995       43.11999999999999      41.159999999999997
    94   1      1.9599999999999937      41.159999999999997      45.079999999999991
    95   1      1.9599999999999937       43.11999999999999      47.039999999999992
    96   1       3.919999999999995      41.159999999999997      47.039999999999992
    97   1       3.919999999999995       43.11999999999999      45.079999999999991
    98   1      1.9599999999999937      41.159999999999997      48.999999999999993
    99   1      1.9599999999999937       43.11999999999999      50.959999999999994
   100   1       3.919999999999995      41.159999999999997      50.959999999999994
   101   1       3.919999999999995       43.11999999999999      48.999999999999993
   102   1      1.9599999999999937      41.159999999999997      52.919999999999987
   103   1      1.9599999999999937       43.11999999999999      54.879999999999988
   104   1       3.919999999999995      41.159999999999997      54.879999999999988
   105   1       3.919999999999995       43.11999999999999      52.919999999999987
   106   1       3.919999999999995      41.159999999999997       58.79999999999999
   107   1       3.919999999999995       43.11999999999999      56.839999999999989
   108   1       3.919999999999995       43.11999999999999      60.759999999999991
   109   1       3.919999999999995      45.079999999999991      31.359999999999996
   110   1       3.919999999999995      47.039999999999992      29.399999999999995
   111   1      1.9599999999999937      47.039999999999992      35.279999999999994
   112   1       3.919999999999995      45.079999999999991      35.279999999999994
   113   1       3.919999999999995      47.039999999999992      33.319999999999993
   114   1      1.9599999999999937      45.079999999999991      37.239999999999995
   115   1      1.9599999999999937      47.039999999999992      39.199999999999996
   116   1       3.919999999999995      45.079999999999991      39.199999999999996
   117   1       3.919999999999995      47.039999999999992      37.239999999999995
   118   1      1.9599999999999937      45.079999999999991      41.159999999999997
   119   1      1.9599999999999937      47.039999999999992       43.11999999999999
   120   1       3.919999999999995      45.079999999999991       43.11999999999999
   121   1       3.919999999999995      47.039999999999992      41.159999999999997
   122   1      1.9599999999999937      45.079999999999991      45.079999999999991
   123   1      1.9599999999999937      47.039999999999992      47.039999999999992
   124   1       3.919999999999995      45.079999999999991      47.039999999999992
   125   1       3.919999999999995      47.039999999999992      45.079999999999991
   126   1      1.9599999999999937      45.079999999999991      48.999999999999993
   127   1      1.9599999999999937      47.039999999999992      50.959999999999994
   128   1       3.919999999999995      45.079999999999991      50.959999999999994
   129   1       3.919999999999995      47.039999999999992      48.999999999999993
   130   1      1.9599999999999937      45.079999999999991      52.919999999999987
   131   1      1.9599999999999937      47.039999999999992      54.879999999999988
   132   1       3.919999999999995      45.079999999999991      54.879999999999988
   133   1       3.919999999999995      47.039999999999992      52.919999999999987
   134   1       3.919999999999995      45.079999999999991       58.79999999999999
   135   1       3.919999999999995      47.039999999999992      56.839999999999989
   136   1       3.919999999999995      47.039999999999992      60.759999999999991
   137   1       3.919999999999995      48.999999999999993      31.359999999999996
   138   1       3.919999999999995      50.959999999999994      29.399999999999995
   139   1      1.9599999999999937      50.959999999999994      35.279999999999994
   140   1       3.919999999999995      48.999999999999993      35.279999999999994
   141   1       3.919999999999995      50.959999999999994      33.319999999999993
   142   1      1.9599999999999937      48.999999999999993      37.239999999999995
   143   1      1.9599999999999937      50.959999999999994      39.199999999999996
   144   1       3.919999999999995      48.999999999999993      39.199999999999996
   145   1       3.919999999999995      50.959999999999994      37.239999999999995
   146   1      1.9599999999999937      48.999999999999993      41.159999999999997
   147   1      1.9599999999999937      50.959999999999994       43.11999999999999
   148   1       3.919999999999995      48.999999999999993       43.11999999999999
   149   1       3.919999999999995      50.959999999999994      41.159999999999997
   150   1      1.9599999999999937      48.999999999999993      45.079999999999991
   151   1      1.9599999999999937      50.959999999999994      47.039999999999992
   152   1       3.919999999999995      48.999999999999993      47.039999999999992
   153   1       3.919999999999995      50.959999999999994      45.079999999999991
   154   1      1.9599999999999937      48.999999999999993      48.999999999999993
   155   1      1.9599999999999937      50.959999999999994      50.959999999999994
   156   1       3.919999999999995      48.999999999999993      50.959999999999994
   157   1       3.919999999999995      50.959999999999994      48.999999999999993
   158   1      1.9599999999999937      48.999999999999993      52.919999999999987
   159   1      1.9599999999999937      50.959999999999994      54.879999999999988
   160   1       3.919999999999995      48.999999999999993      54.879999999999988
   161   1       3.919999999999995      50.959999999999994      52.919999999999987
   162   1       3.919999999999995      48.999999999999993       58.79999999999999
   163   1       3.919999999999995      50.959999999999994      56.839999999999989
   164   1       3.919999999999995      50.959999999999994      60.759999999999991
   165   1       3.919999999999995      52.919999999999987      31.359999999999996
   166   1       3.919999999999995      54.879999999999988      29.399999999999995
   167   1      1.9599999999999937      54.879999999999988      35.279999999999994
   168   1       3.919999999999995      52.919999999999987      35.279999999999994
   169   1       3.919999999999995      54.879999999999988      33.319999999999993
   170   1      1.9599999999999937      52.919999999999987      37.239999999999995
   171   1      1.9599999999999937      54.879999999999988      39.199999999999996
   172   1       3.919999999999995      52.919999999999987      39.199999999999996
   173   1       3.919999999999995      54.879999999999988      37.239999999999995
   174   1      1.9599999999999937      52.919999999999987      41.159999999999997
   175   1      1.9599999999999937      54.879999999999988       43.11999999999999
   176   1       3.919999999999995      52.919999999999987       43.11999999999999
   177   1       3.919999999999995      54.879999999999988      41.159999999999997
   178   1      1.9599999999999937      52.919999999999987      45.079999999999991
   179   1      1.9599999999999937      54.879999999999988      47.039999999999992
   180   1       3.919999999999995      52.919999999999987      47.039999999999992
   181   1       3.919999999999995      54.879999999999988      45.079999999999991
   182   1      1.9599999999999937      52.919999999999987      48.999999999999993
   183   1      1.9599999999999937      54.879999999999988      50.959999999999994
   184   1       3.919999999999995      52.919999999999987      50.959999999999994
   185   1       3.919999999999995      54.879999999999988      48.999999999999993
   186   1      1.9599999999999937      52.919999999999987      52.919999999999987
   187   1      1.9599999999999937      54.879999999999988      54.879999999999988
   188   1       3.919999999999995      52.919999999999987      54.879999999999988
   189   1       3.919999999999995      54.879999999999988      52.919999999999987
   190   1       3.919999999999995      52.919999999999987       58.79999999999999
   191   1       3.919999999999995      54.879999999999988      56.839999999999989
   192   1       3.919999999999995      54.879999999999988      60.759999999999991
   193   1       3.919999999999995      56.839999999999989      31.359999999999996
   194   1       3.919999999999995       58.79999999999999      29.399999999999995
   195   1       3.919999999999995      56.839999999999989      35.279999999999994
   196   1       3.919999999999995       58.79999999999999      33.319999999999993
   197   1       3.919999999999995      56.839999999999989      39.199999999999996
   198   1       3.919999999999995       58.79999999999999      37.239999999999995
   199   1       3.919999999999995      56.839999999999989       43.11999999999999
   200   1       3.919999999999995       58.79999999999999      41.159999999999997
   201   1       3.919999999999995      56.839999999999989      47.039999999999992
   202   1       3.919999999999995       58.79999999999999      45.079999999999991
   203   1       3.919999999999995      56.839999999999989      50.959999999999994
   204   1       3.919999999999995       58.79999999999999      48.999999999999993
   205   1       3.919999999999995      56.839999999999989      54.879999999999988
   206   1       3.919999999999995       58.79999999999999      52.919999999999987
   207   1       3.919999999999995      56.839999999999989       58.79999999999999
   208   1       3.919999999999995       58.79999999999999      56.839999999999989
   209   1       3.919999999999995       58.79999999999999      60.759999999999991
   210   1       3.919999999999995      60.759999999999991      31.359999999999996
   211   1       3.919999999999995      60.759999999999991      35.279999999999994
   212   1       3.919999999999995      60.759999999999991      39.199999999999996
   213   1       3.919999999999995      60.759999999999991       43.11999999999999
   214   1       3.919999999999995      60.759999999999991      47.039999999999992
   215   1       3.919999999999995      60.759999999999991      50.959999999999994
   216   1       3.919999999999995      60.759999999999991      54.879999999999988
   217   1       3.919999999999995      60.759999999999991       58.79999999999999
   218   1      7.8399999999999963      17.639999999999993      19.599999999999994
   219   1      7.8399999999999963      19.599999999999994      17.639999999999993
   220   1      7.8399999999999963      17.639999999999993      23.519999999999992
   221   1      7.8399999999999963      19.599999999999994      21.559999999999992
   222   1      7.8399999999999963      17.639999999999993      27.439999999999994
   223   1      7.8399999999999963      19.599999999999994      25.479999999999993
   224   1      7.8399999999999963      17.639999999999993      31.359999999999996
   225   1      7.8399999999999963      19.599999999999994      29.399999999999995
   226   1      7.8399999999999963      17.639999999999993      35.279999999999994
   227   1      7.8399999999999963      19.599999999999994      33.319999999999993
   228   1      7.8399999999999963      17.639999999999993      39.199999999999996
   229   1      7.8399999999999963      19.599999999999994      37.239999999999995
   230   1      7.8399999999999963      17.639999999999993       43.11999999999999
   231   1      7.8399999999999963      19.599999999999994      41.159999999999997
   232   1      7.8399999999999963      17.639999999999993      47.039999999999992
   233   1      7.8399999999999963      19.599999999999994      45.079999999999991
   234   1      7.8399999999999963      17.639999999999993      50.959999999999994
   235   1      7.8399999999999963      19.599999999999994      48.999999999999993
   236   1      7.8399999999999963      17.639999999999993      54.879999999999988
   237   1      7.8399999999999963      19.599999999999994      52.919999999999987
   238   1      7.8399999999999963      17.639999999999993       58.79999999999999
   239   1      7.8399999999999963      19.599999999999994      56.839999999999989
   240   1      7.8399999999999963      17.639999999999993      62.719999999999992
   241   1      7.8399999999999963      19.599999999999994      60.759999999999991
   242   1      7.8399999999999963      17.639999999999993      66.639999999999986
   243   1      7.8399999999999963      19.599999999999994      64.679999999999993
   244   1      7.8399999999999963      17.639999999999993      70.559999999999988
   245   1      7.8399999999999963      19.599999999999994      68.599999999999994
   246   1      7.8399999999999963      19.599999999999994       72.52000000000001
   247   1      7.8399999999999963      21.559999999999992      19.599999999999994
   248   1      7.8399999999999963      23.519999999999992      17.639999999999993
   249   1      5.8799999999999883      23.519999999999992      23.519999999999992
   250   1      7.8399999999999963      21.559999999999992      23.519999999999992
   251   1      7.8399999999999963      23.519999999999992      21.559999999999992
   252   1      5.8799999999999883      23.519999999999992      27.439999999999994
   253   1      7.8399999999999963      21.559999999999992      27.439999999999994
   254   1      7.8399999999999963      23.519999999999992      25.479999999999993
   255   1      5.8799999999999883      23.519999999999992      31.359999999999996
   256   1      7.8399999999999963      21.559999999999992      31.359999999999996
   257   1      7.8399999999999963      23.519999999999992      29.399999999999995
   258   1      5.8799999999999883      23.519999999999992      35.279999999999994
   259   1      7.8399999999999963      21.559999999999992      35.279999999999994
   260   1      7.8399999999999963      23.519999999999992      33.319999999999993
   261   1      5.8799999999999883      23.519999999999992      39.199999999999996
   262   1      7.8399999999999963      21.559999999999992      39.199999999999996
   263   1      7.8399999999999963      23.519999999999992      37.239999999999995
   264   1      5.8799999999999883      23.519999999999992       43.11999999999999
   265   1      7.8399999999999963      21.559999999999992       43.11999999999999
   266   1      7.8399999999999963      23.519999999999992      41.159999999999997
   267   1      5.8799999999999883      23.519999999999992      47.039999999999992
   268   1      7.8399999999999963      21.559999999999992      47.039999999999992
   269   1      7.8399999999999963      23.519999999999992      45.079999999999991
   270   1      5.8799999999999883      23.519999999999992      50.959999999999994
   271   1      7.8399999999999963      21.559999999999992      50.959999999999994
   272   1      7.8399999999999963      23.519999999999992      48.999999999999993
   273   1      5.8799999999999883      23.519999999999992      54.879999999999988
   274   1      7.8399999999999963      21.559999999999992      54.879999999999988
   275   1      7.8399999999999963      23.519999999999992      52.919999999999987
   276   1      5.8799999999999883      23.519999999999992       58.79999999999999
   277   1      7.8399999999999963      21.559999999999992       58.79999999999999
   278   1      7.8399999999999963      23.519999999999992      56.839999999999989
   279   1      5.8799999999999883      23.519999999999992      62.719999999999992
   280   1      7.8399999999999963      21.559999999999992      62.719999999999992
   281   1      7.8399999999999963      23.519999999999992      60.759999999999991
   282   1      5.8799999999999883      23.519999999999992      66.639999999999986
   283   1      7.8399999999999963      21.559999999999992      66.639999999999986
   284   1      7.8399999999999963      23.519999999999992      64.679999999999993
   285   1      7.8399999999999963      21.559999999999992      70.559999999999988
   286   1      7.8399999999999963      23.519999999999992      68.599999999999994
   287   1      7.8399999999999963      23.519999999999992       72.52000000000001
   288   1      7.8399999999999963      25.479999999999993      19.599999999999994
   289   1      7.8399999999999963      27.439999999999994      17.639999999999993
   290   1      5.8799999999999883      27.439999999999994      23.519999999999992
   291   1      7.8399999999999963      25.479999999999993      23.519999999999992
   292   1      7.8399999999999963      27.439999999999994      21.559999999999992
   293   1      5.8799999999999883      25.479999999999993      25.479999999999993
   294   1      5.8799999999999883      27.439999999999994      27.439999999999994
   295   1      7.8399999999999963      25.479999999999993      27.439999999999994
   296   1      7.8399999999999963      27.439999999999994      25.479999999999993
   297   1      5.8799999999999883      25.479999999999993      29.399999999999995
   298   1      5.8799999999999883      27.439999999999994      31.359999999999996
   299   1      7.8399999999999963      25.479999999999993      31.359999999999996
   300   1      7.8399999999999963      27.439999999999994      29.399999999999995
   301   1      5.8799999999999883      25.479999999999993      33.319999999999993
   302   1      5.8799999999999883      27.439999999999994      35.279999999999994
   303   1      7.8399999999999963      25.479999999999993      35.279999999999994
   304   1      7.8399999999999963      27.439999999999994      33.319999999999993
   305   1      5.8799999999999883      25.479999999999993      37.239999999999995
   306   1      5.8799999999999883      27.439999999999994      39.199999999999996
   307   1      7.8399999999999963      25.479999999999993      39.199999999999996
   308   1      7.8399999999999963      27.439999999999994      37.239999999999995
   309   1      5.8799999999999883      25.479999999999993      41.159999999999997
   310   1      5.8799999999999883      27.439999999999994       43.11999999999999
   311   1      7.8399999999999963      25.479999999999993       43.11999999999999
   312   1      7.8399999999999963      27.439999999999994      41.159999999999997
   313   1      5.8799999999999883      25.479999999999993      45.079999999999991
   314   1      5.8799999999999883      27.439999999999994      47.039999999999992
   315   1      7.8399999999999963      25.479999999999993      47.039999999999992
   316   1      7.8399999999999963      27.439999999999994      45.079999999999991
   317   1      5.8799999999999883      25.479999999999993      48.999999999999993
   318   1      5.8799999999999883      27.439999999999994      50.959999999999994
   319   1      7.8399999999999963      25.479999999999993      50.959999999999994
   320   1      7.8399999999999963      27.439999999999994      48.999999999999993
   321   1      5.8799999999999883      25.479999999999993      52.919999999999987
   322   1      5.8799999999999883      27.439999999999994      54.879999999999988
   323   1      7.8399999999999963      25.479999999999993      54.879999999999988
   324   1      7.8399999999999963      27.439999999999994      52.919999999999987
   325   1      5.8799999999999883      25.479999999999993      56.839999999999989
   326   1      5.8799999999999883      27.439999999999994       58.79999999999999
   327   1      7.8399999999999963      25.479999999999993       58.79999999999999
   328   1      7.8399999999999963      27.439999999999994      56.839999999999989
   329   1      5.8799999999999883      25.479999999999993      60.759999999999991
   330   1      5.8799999999999883      27.439999999999994      62.719999999999992
   331   1      7.8399999999999963      25.479999999999993      62.719999999999992
   332   1      7.8399999999999963      27.439999999999994      60.759999999999991
   333   1      5.8799999999999883      25.479999999999993      64.679999999999993
   334   1      5.8799999999999883      27.439999999999994      66.639999999999986
   335   1      7.8399999999999963      25.479999999999993      66.639999999999986
   336   1      7.8399999999999963      27.439999999999994      64.679999999999993
   337   1      7.8399999999999963      25.479999999999993      70.559999999999988
   338   1      7.8399999999999963      27.439999999999994      68.599999999999994
   339   1      7.8399999999999963      27.439999999999994       72.52000000000001
   340   1      7.8399999999999963      29.399999999999995      19.599999999999994
   341   1      7.8399999999999963      31.359999999999996      17.639999999999993
   342   1      5.8799999999999883      31.359999999999996      23.519999999999992
   343   1      7.8399999999999963      29.399999999999995      23.519999999999992
   344   1      7.8399999999999963      31.359999999999996      21.559999999999992
   345   1      5.8799999999999883      29.399999999999995      25.479999999999993
   346   1      5.8799999999999883      31.359999999999996      27.439999999999994
   347   1      7.8399999999999963      29.399999999999995      27.439999999999994
   348   1      7.8399999999999963      31.359999999999996      25.479999999999993
   349   1      5.8799999999999883      29.399999999999995      29.399999999999995
   350   1      5.8799999999999883      31.359999999999996      31.359999999999996
   351   1      7.8399999999999963      29.399999999999995      31.359999999999996
   352   1      7.8399999999999963      31.359999999999996      29.399999999999995
   353   1      5.8799999999999883      29.399999999999995      33.319999999999993
   354   1      5.8799999999999883      31.359999999999996      35.279999999999994
   355   1      7.8399999999999963      29.399999999999995      35.279999999999994
   356   1      7.8399999999999963      31.359999999999996      33.319999999999993
   357   1      5.8799999999999883      29.399999999999995      37.239999999999995
   358   1      5.8799999999999883      31.359999999999996      39.199999999999996