model_files/Pd/Pd_30000/Pd_533/data.Pd_533_fcc_30085 (written by ASE) 

30085 	 atoms 
1  atom types
0.0                     112  xlo xhi
0.0                     112  ylo yhi
0.0                     112  zlo zhi


Atoms 

     1   1      111.99999999999999      54.459999999999987      56.404999999999987
     2   1      111.99999999999999      56.404999999999987      54.459999999999987
     3   1      111.99999999999999      56.404999999999987      58.349999999999987
     4   1      111.99999999999999      58.349999999999987      56.404999999999987
     5   1       3.889999999999993      50.569999999999993      56.404999999999987
     6   1       1.944999999999993      54.459999999999987      54.459999999999987
     7   1       3.889999999999993      52.514999999999986      54.459999999999987
     8   1       3.889999999999993      54.459999999999987      52.514999999999986
     9   1       1.944999999999993      52.514999999999986      56.404999999999987
    10   1       1.944999999999993      54.459999999999987      58.349999999999987
    11   1       3.889999999999993      52.514999999999986      58.349999999999987
    12   1       3.889999999999993      54.459999999999987      56.404999999999987
    13   1       3.889999999999993      54.459999999999987      60.294999999999995
    14   1       3.889999999999993      56.404999999999987      50.569999999999993
    15   1       1.944999999999993      56.404999999999987      52.514999999999986
    16   1       1.944999999999993      58.349999999999987      54.459999999999987
    17   1       3.889999999999993      56.404999999999987      54.459999999999987
    18   1       3.889999999999993      58.349999999999987      52.514999999999986
    19   1       1.944999999999993      56.404999999999987      56.404999999999987
    20   1       1.944999999999993      58.349999999999987      58.349999999999987
    21   1       3.889999999999993      56.404999999999987      58.349999999999987
    22   1       3.889999999999993      58.349999999999987      56.404999999999987
    23   1       1.944999999999993      56.404999999999987      60.294999999999995
    24   1       3.889999999999993      56.404999999999987      62.239999999999988
    25   1       3.889999999999993      58.349999999999987      60.294999999999995
    26   1       3.889999999999993      60.294999999999995      54.459999999999987
    27   1       1.944999999999993      60.294999999999995      56.404999999999987
    28   1       3.889999999999993      60.294999999999995      58.349999999999987
    29   1       3.889999999999993      62.239999999999988      56.404999999999987
    30   1       7.779999999999994      42.789999999999992      56.404999999999987
    31   1      5.8349999999999937      46.679999999999993      54.459999999999987
    32   1       7.779999999999994      44.734999999999992      54.459999999999987
    33   1       7.779999999999994      46.679999999999993      52.514999999999986
    34   1      5.8349999999999937      44.734999999999992      56.404999999999987
    35   1      5.8349999999999937      46.679999999999993      58.349999999999987
    36   1       7.779999999999994      44.734999999999992      58.349999999999987
    37   1       7.779999999999994      46.679999999999993      56.404999999999987
    38   1       7.779999999999994      46.679999999999993      60.294999999999995
    39   1      5.8349999999999937      50.569999999999993      50.569999999999993
    40   1       7.779999999999994      48.624999999999993      50.569999999999993
    41   1       7.779999999999994      50.569999999999993      48.624999999999993
    42   1      5.8349999999999937      48.624999999999993      52.514999999999986
    43   1      5.8349999999999937      50.569999999999993      54.459999999999987
    44   1       7.779999999999994      48.624999999999993      54.459999999999987
    45   1       7.779999999999994      50.569999999999993      52.514999999999986
    46   1      5.8349999999999937      48.624999999999993      56.404999999999987
    47   1      5.8349999999999937      50.569999999999993      58.349999999999987
    48   1       7.779999999999994      48.624999999999993      58.349999999999987
    49   1       7.779999999999994      50.569999999999993      56.404999999999987
    50   1      5.8349999999999937      48.624999999999993      60.294999999999995
    51   1      5.8349999999999937      50.569999999999993      62.239999999999988
    52   1       7.779999999999994      48.624999999999993      62.239999999999988
    53   1       7.779999999999994      50.569999999999993      60.294999999999995
    54   1       7.779999999999994      50.569999999999993      64.184999999999988
    55   1      5.8349999999999937      54.459999999999987      46.679999999999993
    56   1       7.779999999999994      52.514999999999986      46.679999999999993
    57   1       7.779999999999994      54.459999999999987      44.734999999999992
    58   1      5.8349999999999937      52.514999999999986      48.624999999999993
    59   1      5.8349999999999937      54.459999999999987      50.569999999999993
    60   1       7.779999999999994      52.514999999999986      50.569999999999993
    61   1       7.779999999999994      54.459999999999987      48.624999999999993
    62   1      5.8349999999999937      52.514999999999986      52.514999999999986
    63   1      5.8349999999999937      54.459999999999987      54.459999999999987
    64   1       7.779999999999994      52.514999999999986      54.459999999999987
    65   1       7.779999999999994      54.459999999999987      52.514999999999986
    66   1      5.8349999999999937      52.514999999999986      56.404999999999987
    67   1      5.8349999999999937      54.459999999999987      58.349999999999987
    68   1       7.779999999999994      52.514999999999986      58.349999999999987
    69   1       7.779999999999994      54.459999999999987      56.404999999999987
    70   1      5.8349999999999937      52.514999999999986      60.294999999999995
    71   1      5.8349999999999937      54.459999999999987      62.239999999999988
    72   1       7.779999999999994      52.514999999999986      62.239999999999988
    73   1       7.779999999999994      54.459999999999987      60.294999999999995
    74   1      5.8349999999999937      52.514999999999986      64.184999999999988
    75   1      5.8349999999999937      54.459999999999987      66.129999999999981
    76   1       7.779999999999994      52.514999999999986      66.129999999999981
    77   1       7.779999999999994      54.459999999999987      64.184999999999988
    78   1       7.779999999999994      54.459999999999987      68.074999999999989
    79   1       7.779999999999994      56.404999999999987      42.789999999999992
    80   1      5.8349999999999937      56.404999999999987      44.734999999999992
    81   1      5.8349999999999937      58.349999999999987      46.679999999999993
    82   1       7.779999999999994      56.404999999999987      46.679999999999993
    83   1       7.779999999999994      58.349999999999987      44.734999999999992
    84   1      5.8349999999999937      56.404999999999987      48.624999999999993
    85   1      5.8349999999999937      58.349999999999987      50.569999999999993
    86   1       7.779999999999994      56.404999999999987      50.569999999999993
    87   1       7.779999999999994      58.349999999999987      48.624999999999993
    88   1      5.8349999999999937      56.404999999999987      52.514999999999986
    89   1      5.8349999999999937      58.349999999999987      54.459999999999987
    90   1       7.779999999999994      56.404999999999987      54.459999999999987
    91   1       7.779999999999994      58.349999999999987      52.514999999999986
    92   1      5.8349999999999937      56.404999999999987      56.404999999999987
    93   1      5.8349999999999937      58.349999999999987      58.349999999999987
    94   1       7.779999999999994      56.404999999999987      58.349999999999987
    95   1       7.779999999999994      58.349999999999987      56.404999999999987
    96   1      5.8349999999999937      56.404999999999987      60.294999999999995
    97   1      5.8349999999999937      58.349999999999987      62.239999999999988
    98   1       7.779999999999994      56.404999999999987      62.239999999999988
    99   1       7.779999999999994      58.349999999999987      60.294999999999995
   100   1      5.8349999999999937      56.404999999999987      64.184999999999988
   101   1      5.8349999999999937      58.349999999999987      66.129999999999981
   102   1       7.779999999999994      56.404999999999987      66.129999999999981
   103   1       7.779999999999994      58.349999999999987      64.184999999999988
   104   1      5.8349999999999937      56.404999999999987      68.074999999999989
   105   1       7.779999999999994      56.404999999999987      70.019999999999982
   106   1       7.779999999999994      58.349999999999987      68.074999999999989
   107   1       7.779999999999994      60.294999999999995      46.679999999999993
   108   1      5.8349999999999937      60.294999999999995      48.624999999999993
   109   1      5.8349999999999937      62.239999999999988      50.569999999999993
   110   1       7.779999999999994      60.294999999999995      50.569999999999993
   111   1       7.779999999999994      62.239999999999988      48.624999999999993
   112   1      5.8349999999999937      60.294999999999995      52.514999999999986
   113   1      5.8349999999999937      62.239999999999988      54.459999999999987
   114   1       7.779999999999994      60.294999999999995      54.459999999999987
   115   1       7.779999999999994      62.239999999999988      52.514999999999986
   116   1      5.8349999999999937      60.294999999999995      56.404999999999987
   117   1      5.8349999999999937      62.239999999999988      58.349999999999987
   118   1       7.779999999999994      60.294999999999995      58.349999999999987
   119   1       7.779999999999994      62.239999999999988      56.404999999999987
   120   1      5.8349999999999937      60.294999999999995      60.294999999999995
   121   1      5.8349999999999937      62.239999999999988      62.239999999999988
   122   1       7.779999999999994      60.294999999999995      62.239999999999988
   123   1       7.779999999999994      62.239999999999988      60.294999999999995
   124   1      5.8349999999999937      60.294999999999995      64.184999999999988
   125   1       7.779999999999994      60.294999999999995      66.129999999999981
   126   1       7.779999999999994      62.239999999999988      64.184999999999988
   127   1       7.779999999999994      64.184999999999988      50.569999999999993
   128   1      5.8349999999999937      64.184999999999988      52.514999999999986
   129   1      5.8349999999999937      66.129999999999981      54.459999999999987
   130   1       7.779999999999994      64.184999999999988      54.459999999999987
   131   1       7.779999999999994      66.129999999999981      52.514999999999986
   132   1      5.8349999999999937      64.184999999999988      56.404999999999987
   133   1      5.8349999999999937      66.129999999999981      58.349999999999987
   134   1       7.779999999999994      64.184999999999988      58.349999999999987
   135   1       7.779999999999994      66.129999999999981      56.404999999999987
   136   1      5.8349999999999937      64.184999999999988      60.294999999999995
   137   1       7.779999999999994      64.184999999999988      62.239999999999988
   138   1       7.779999999999994      66.129999999999981      60.294999999999995
   139   1       7.779999999999994      68.074999999999989      54.459999999999987
   140   1      5.8349999999999937      68.074999999999989      56.404999999999987
   141   1       7.779999999999994      68.074999999999989      58.349999999999987
   142   1       7.779999999999994      70.019999999999982      56.404999999999987
   143   1      11.669999999999995      35.009999999999991      56.404999999999987
   144   1      11.669999999999995      36.954999999999991      54.459999999999987
   145   1      11.669999999999995      38.899999999999991      52.514999999999986
   146   1      11.669999999999995      36.954999999999991      58.349999999999987
   147   1      11.669999999999995      38.899999999999991      56.404999999999987
   148   1      11.669999999999995      38.899999999999991      60.294999999999995
   149   1      11.669999999999995      40.844999999999985      50.569999999999993
   150   1      11.669999999999995      42.789999999999992      48.624999999999993
   151   1      9.7249999999999943      42.789999999999992      54.459999999999987
   152   1      11.669999999999995      40.844999999999985      54.459999999999987
   153   1      11.669999999999995      42.789999999999992      52.514999999999986
   154   1      9.7249999999999943      40.844999999999985      56.404999999999987
   155   1      9.7249999999999943      42.789999999999992      58.349999999999987
   156   1      11.669999999999995      40.844999999999985      58.349999999999987
   157   1      11.669999999999995      42.789999999999992      56.404999999999987
   158   1      11.669999999999995      40.844999999999985      62.239999999999988
   159   1      11.669999999999995      42.789999999999992      60.294999999999995
   160   1      11.669999999999995      42.789999999999992      64.184999999999988
   161   1      11.669999999999995      44.734999999999992      46.679999999999993
   162   1      11.669999999999995      46.679999999999993      44.734999999999992
   163   1      9.7249999999999943      46.679999999999993      50.569999999999993
   164   1      11.669999999999995      44.734999999999992      50.569999999999993
   165   1      11.669999999999995      46.679999999999993      48.624999999999993
   166   1      9.7249999999999943      44.734999999999992      52.514999999999986
   167   1      9.7249999999999943      46.679999999999993      54.459999999999987
   168   1      11.669999999999995      44.734999999999992      54.459999999999987
   169   1      11.669999999999995      46.679999999999993      52.514999999999986
   170   1      9.7249999999999943      44.734999999999992      56.404999999999987
   171   1      9.7249999999999943      46.679999999999993      58.349999999999987
   172   1      11.669999999999995      44.734999999999992      58.349999999999987
   173   1      11.669999999999995      46.679999999999993      56.404999999999987
   174   1      9.7249999999999943      44.734999999999992      60.294999999999995
   175   1      9.7249999999999943      46.679999999999993      62.239999999999988
   176   1      11.669999999999995      44.734999999999992      62.239999999999988
   177   1      11.669999999999995      46.679999999999993      60.294999999999995
   178   1      11.669999999999995      44.734999999999992      66.129999999999981
   179   1      11.669999999999995      46.679999999999993      64.184999999999988
   180   1      11.669999999999995      46.679999999999993      68.074999999999989
   181   1      11.669999999999995      48.624999999999993      42.789999999999992
   182   1      11.669999999999995      50.569999999999993      40.844999999999985
   183   1      9.7249999999999943      50.569999999999993      46.679999999999993
   184   1      11.669999999999995      48.624999999999993      46.679999999999993
   185   1      11.669999999999995      50.569999999999993      44.734999999999992
   186   1      9.7249999999999943      48.624999999999993      48.624999999999993
   187   1      9.7249999999999943      50.569999999999993      50.569999999999993
   188   1      11.669999999999995      48.624999999999993      50.569999999999993
   189   1      11.669999999999995      50.569999999999993      48.624999999999993
   190   1      9.7249999999999943      48.624999999999993      52.514999999999986
   191   1      9.7249999999999943      50.569999999999993      54.459999999999987
   192   1      11.669999999999995      48.624999999999993      54.459999999999987
   193   1      11.669999999999995      50.569999999999993      52.514999999999986
   194   1      9.7249999999999943      48.624999999999993      56.404999999999987
   195   1      9.7249999999999943      50.569999999999993      58.349999999999987
   196   1      11.669999999999995      48.624999999999993      58.349999999999987
   197   1      11.669999999999995      50.569999999999993      56.404999999999987
   198   1      9.7249999999999943      48.624999999999993      60.294999999999995
   199   1      9.7249999999999943      50.569999999999993      62.239999999999988
   200   1      11.669999999999995      48.624999999999993      62.239999999999988
   201   1      11.669999999999995      50.569999999999993      60.294999999999995
   202   1      9.7249999999999943      48.624999999999993      64.184999999999988
   203   1      9.7249999999999943      50.569999999999993      66.129999999999981
   204   1      11.669999999999995      48.624999999999993      66.129999999999981
   205   1      11.669999999999995      50.569999999999993      64.184999999999988
   206   1      11.669999999999995      48.624999999999993      70.019999999999982
   207   1      11.669999999999995      50.569999999999993      68.074999999999989
   208   1      11.669999999999995      50.569999999999993      71.964999999999989
   209   1      11.669999999999995      52.514999999999986      38.899999999999991
   210   1      11.669999999999995      54.459999999999987      36.954999999999991
   211   1      9.7249999999999943      54.459999999999987      42.789999999999992
   212   1      11.669999999999995      52.514999999999986      42.789999999999992
   213   1      11.669999999999995      54.459999999999987      40.844999999999985
   214   1      9.7249999999999943      52.514999999999986      44.734999999999992
   215   1      9.7249999999999943      54.459999999999987      46.679999999999993
   216   1      11.669999999999995      52.514999999999986      46.679999999999993
   217   1      11.669999999999995      54.459999999999987      44.734999999999992
   218   1      9.7249999999999943      52.514999999999986      48.624999999999993
   219   1      9.7249999999999943      54.459999999999987      50.569999999999993
   220   1      11.669999999999995      52.514999999999986      50.569999999999993
   221   1      11.669999999999995      54.459999999999987      48.624999999999993
   222   1      9.7249999999999943      52.514999999999986      52.514999999999986
   223   1      9.7249999999999943      54.459999999999987      54.459999999999987
   224   1      11.669999999999995      52.514999999999986      54.459999999999987
   225   1      11.669999999999995      54.459999999999987      52.514999999999986
   226   1      9.7249999999999943      52.514999999999986      56.404999999999987
   227   1      9.7249999999999943      54.459999999999987      58.349999999999987
   228   1      11.669999999999995      52.514999999999986      58.349999999999987
   229   1      11.669999999999995      54.459999999999987      56.404999999999987
   230   1      9.7249999999999943      52.514999999999986      60.294999999999995
   231   1      9.7249999999999943      54.459999999999987      62.239999999999988
   232   1      11.669999999999995      52.514999999999986      62.239999999999988
   233   1      11.669999999999995      54.459999999999987      60.294999999999995
   234   1      9.7249999999999943      52.514999999999986      64.184999999999988
   235   1      9.7249999999999943      54.459999999999987      66.129999999999981
   236   1      11.669999999999995      52.514999999999986      66.129999999999981
   237   1      11.669999999999995      54.459999999999987      64.184999999999988
   238   1      9.7249999999999943      52.514999999999986      68.074999999999989
   239   1      9.7249999999999943      54.459999999999987      70.019999999999982
   240   1      11.669999999999995      52.514999999999986      70.019999999999982
   241   1      11.669999999999995      54.459999999999987      68.074999999999989
   242   1      11.669999999999995      52.514999999999986      73.909999999999982
   243   1      11.669999999999995      54.459999999999987      71.964999999999989
   244   1      11.669999999999995      54.459999999999987       75.85499999999999
   245   1      11.669999999999995      56.404999999999987      35.009999999999991
   246   1      11.669999999999995      56.404999999999987      38.899999999999991
   247   1      11.669999999999995      58.349999999999987      36.954999999999991
   248   1      9.7249999999999943      56.404999999999987      40.844999999999985
   249   1      9.7249999999999943      58.349999999999987      42.789999999999992
   250   1      11.669999999999995      56.404999999999987      42.789999999999992
   251   1      11.669999999999995      58.349999999999987      40.844999999999985
   252   1      9.7249999999999943      56.404999999999987      44.734999999999992
   253   1      9.7249999999999943      58.349999999999987      46.679999999999993
   254   1      11.669999999999995      56.404999999999987      46.679999999999993
   255   1      11.669999999999995      58.349999999999987      44.734999999999992
   256   1      9.7249999999999943      56.404999999999987      48.624999999999993
   257   1      9.7249999999999943      58.349999999999987      50.569999999999993
   258   1      11.669999999999995      56.404999999999987      50.569999999999993
   259   1      11.669999999999995      58.349999999999987      48.624999999999993
   260   1      9.7249999999999943      56.404999999999987      52.514999999999986
   261   1      9.7249999999999943      58.349999999999987      54.459999999999987
   262   1      11.669999999999995      56.404999999999987      54.459999999999987
   263   1      11.669999999999995      58.349999999999987      52.514999999999986
   264   1      9.7249999999999943      56.404999999999987      56.404999999999987
   265   1      9.7249999999999943      58.349999999999987      58.349999999999987
   266   1      11.669999999999995      56.404999999999987      58.349999999999987
   267   1      11.669999999999995      58.349999999999987      56.404999999999987
   268   1      9.7249999999999943      56.404999999999987      60.294999999999995
   269   1      9.7249999999999943      58.349999999999987      62.239999999999988
   270   1      11.669999999999995      56.404999999999987      62.239999999999988
   271   1      11.669999999999995      58.349999999999987      60.294999999999995
   272   1      9.7249999999999943      56.404999999999987      64.184999999999988
   273   1      9.7249999999999943      58.349999999999987      66.129999999999981
   274   1      11.669999999999995      56.404999999999987      66.129999999999981
   275   1      11.669999999999995      58.349999999999987      64.184999999999988
   276   1      9.7249999999999943      56.404999999999987      68.074999999999989
   277   1      9.7249999999999943      58.349999999999987      70.019999999999982
   278   1      11.669999999999995      56.404999999999987      70.019999999999982
   279   1      11.669999999999995      58.349999999999987      68.074999999999989
   280   1      9.7249999999999943      56.404999999999987      71.964999999999989
   281   1      11.669999999999995      56.404999999999987      73.909999999999982
   282   1      11.669999999999995      58.349999999999987      71.964999999999989
   283   1      11.669999999999995      56.404999999999987      77.799999999999983
   284   1      11.669999999999995      58.349999999999987       75.85499999999999
   285   1      11.669999999999995      60.294999999999995      38.899999999999991
   286   1      11.669999999999995      60.294999999999995      42.789999999999992
   287   1      11.669999999999995      62.239999999999988      40.844999999999985
   288   1      9.7249999999999943      60.294999999999995      44.734999999999992
   289   1      9.7249999999999943      62.239999999999988      46.679999999999993
   290   1      11.669999999999995      60.294999999999995      46.679999999999993
   291   1      11.669999999999995      62.239999999999988      44.734999999999992
   292   1      9.7249999999999943      60.294999999999995      48.624999999999993
   293   1      9.7249999999999943      62.239999999999988      50.569999999999993
   294   1      11.669999999999995      60.294999999999995      50.569999999999993
   295   1      11.669999999999995      62.239999999999988      48.624999999999993
   296   1      9.7249999999999943      60.294999999999995      52.514999999999986
   297   1      9.7249999999999943      62.239999999999988      54.459999999999987
   298   1      11.669999999999995      60.294999999999995      54.459999999999987
   299   1      11.669999999999995      62.239999999999988      52.514999999999986
   300   1      9.7249999999999943      60.294999999999995      56.404999999999987
   301   1      9.7249999999999943      62.239999999999988      58.349999999999987
   302   1      11.669999999999995      60.294999999999995      58.349999999999987
   303   1      11.669999999999995      62.239999999999988      56.404999999999987
   304   1      9.7249999999999943      60.294999999999995      60.294999999999995
   305   1      9.7249999999999943      62.239999999999988      62.239999999999988
   306   1      11.669999999999995      60.294999999999995      62.239999999999988
   307   1      11.669999999999995      62.239999999999988      60.294999999999995
   308   1      9.7249999999999943      60.294999999999995      64.184999999999988
   309   1      9.7249999999999943      62.239999999999988      66.129999999999981
   310   1      11.669999999999995      60.294999999999995      66.129999999999981
   311   1      11.669999999999995      62.239999999999988      64.184999999999988
   312   1      9.7249999999999943      60.294999999999995      68.074999999999989
   313   1      11.669999999999995      60.294999999999995      70.019999999999982
   314   1      11.669999999999995      62.239999999999988      68.074999999999989
   315   1      11.669999999999995      60.294999999999995      73.909999999999982
   316   1      11.669999999999995      62.239999999999988      71.964999999999989
   317   1      11.669999999999995      64.184999999999988      42.789999999999992
   318   1      11.669999999999995      64.184999999999988      46.679999999999993
   319   1      11.669999999999995      66.129999999999981      44.734999999999992
   320   1      9.7249999999999943      64.184999999999988      48.624999999999993
   321   1      9.7249999999999943      66.129999999999981      50.569999999999993
   322   1      11.669999999999995      64.184999999999988      50.569999999999993
   323   1      11.669999999999995      66.129999999999981      48.624999999999993
   324   1      9.7249999999999943      64.184999999999988      52.514999999999986
   325   1      9.7249999999999943      66.129999999999981      54.459999999999987
   326   1      11.669999999999995      64.184999999999988      54.459999999999987
   327   1      11.669999999999995      66.129999999999981      52.514999999999986
   328   1      9.7249999999999943      64.184999999999988      56.404999999999987
   329   1      9.7249999999999943      66.129999999999981      58.349999999999987
   330   1      11.669999999999995      64.184999999999988      58.349999999999987
   331   1      11.669999999999995      66.129999999999981      56.404999999999987
   332   1      9.7249999999999943      64.184999999999988      60.294999999999995
   333   1      9.7249999999999943      66.129999999999981      62.239999999999988
   334   1      11.669999999999995      64.184999999999988      62.239999999999988
   335   1      11.669999999999995      66.129999999999981      60.294999999999995
   336   1      9.7249999999999943      64.184999999999988      64.184999999999988
   337   1      11.669999999999995      64.184999999999988      66.129999999999981
   338   1      11.669999999999995      66.129999999999981      64.184999999999988
   339   1      11.669999999999995      64.184999999999988      70.019999999999982
   340   1      11.669999999999995      66.129999999999981      68.074999999999989
   341   1      11.669999999999995      68.074999999999989      46.679999999999993
   342   1      11.669999999999995      68.074999999999989      50.569999999999993
   343   1      11.669999999999995      70.019999999999982      48.624999999999993
   344   1      9.7249999999999943      68.074999999999989      52.514999999999986
   345   1      9.7249999999999943      70.019999999999982      54.459999999999987
   346   1      11.669999999999995      68.074999999999989      54.459999999999987
   347   1      11.669999999999995      70.019999999999982      52.514999999999986
   348   1      9.7249999999999943      68.074999999999989      56.404999999999987
   349   1      9.7249999999999943      70.019999999999982      58.349999999999987
   350   1      11.669999999999995      68.074999999999989      58.349999999999987
   351   1      11.669999999999995      70.019999999999982      56.404999999999987
   352   1      9.7249999999999943      68.074999999999989      60.294999999999995
   353   1      11.669999999999995      68.074999999999989      62.239999999999988
   354   1      11.669999999999995      70.019999999999982      60.294999999999995
   355   1      11.669999999999995      68.074999999999989      66.129999999999981
   356   1      11.669999999999995      70.019999999999982      64.184999999999988
   357   1      11.669999999999995      71.964999999999989      50.569999999999993
   358   1      11.669999999999995      71.964999999999989      54.459999999999987