model_files/CuFeNi/CuFeNi_30000/CuFeNi_511/CuFeNi_511_fcc_30527_temp.data (written by ASE) 

30527 	 atoms 
3  atom types
0.0                      89  xlo xhi
0.0                      89  ylo yhi
0.0                      89  zlo zhi


Atoms 

     1   1  7.1054273576010019e-15      41.799999999999997      43.700000000000003
     2   1  7.1054273576010019e-15      43.700000000000003      41.799999999999997
     3   1  7.1054273576010019e-15      43.700000000000003      45.599999999999994
     4   1  7.1054273576010019e-15      45.599999999999994      43.700000000000003
     5   1      3.8000000000000114      22.800000000000004      43.700000000000003
     6   1      3.8000000000000114      24.700000000000003      41.799999999999997
     7   1      3.8000000000000114      26.600000000000001      39.899999999999999
     8   1      3.8000000000000114      24.700000000000003      45.599999999999994
     9   1      3.8000000000000114      26.600000000000001      43.700000000000003
    10   1      3.8000000000000114      26.600000000000001                    47.5
    11   1      3.8000000000000114                    28.5                      38
    12   1      3.8000000000000114      30.400000000000006      36.100000000000001
    13   1      3.8000000000000114                    28.5      41.799999999999997
    14   1      3.8000000000000114      30.400000000000006      39.899999999999999
    15   1      3.8000000000000114                    28.5      45.599999999999994
    16   1      3.8000000000000114      30.400000000000006      43.700000000000003
    17   1      3.8000000000000114                    28.5      49.399999999999999
    18   1      3.8000000000000114      30.400000000000006                    47.5
    19   1      3.8000000000000114      30.400000000000006      51.299999999999997
    20   1      3.8000000000000114      32.300000000000004      34.200000000000003
    21   1      3.8000000000000114      34.200000000000003      32.300000000000004
    22   1      3.8000000000000114      32.300000000000004                      38
    23   1      3.8000000000000114      34.200000000000003      36.100000000000001
    24   1      1.9000000000000057      34.200000000000003      41.799999999999997
    25   1      3.8000000000000114      32.300000000000004      41.799999999999997
    26   1      3.8000000000000114      34.200000000000003      39.899999999999999
    27   1      1.9000000000000057      32.300000000000004      43.700000000000003
    28   1      1.9000000000000057      34.200000000000003      45.599999999999994
    29   1      3.8000000000000114      32.300000000000004      45.599999999999994
    30   1      3.8000000000000114      34.200000000000003      43.700000000000003
    31   1      3.8000000000000114      32.300000000000004      49.399999999999999
    32   1      3.8000000000000114      34.200000000000003                    47.5
    33   1      3.8000000000000114      32.300000000000004      53.199999999999989
    34   1      3.8000000000000114      34.200000000000003      51.299999999999997
    35   1      3.8000000000000114      34.200000000000003      55.100000000000001
    36   1      3.8000000000000114      36.100000000000001      30.400000000000006
    37   1      3.8000000000000114                      38                    28.5
    38   1      3.8000000000000114      36.100000000000001      34.200000000000003
    39   1      3.8000000000000114                      38      32.300000000000004
    40   1      1.9000000000000057                      38                      38
    41   1      3.8000000000000114      36.100000000000001                      38
    42   1      3.8000000000000114                      38      36.100000000000001
    43   1      1.9000000000000057      36.100000000000001      39.899999999999999
    44   1      1.9000000000000057                      38      41.799999999999997
    45   1      3.8000000000000114      36.100000000000001      41.799999999999997
    46   1      3.8000000000000114                      38      39.899999999999999
    47   1      1.9000000000000057      36.100000000000001      43.700000000000003
    48   1      1.9000000000000057                      38      45.599999999999994
    49   1      3.8000000000000114      36.100000000000001      45.599999999999994
    50   1      3.8000000000000114                      38      43.700000000000003
    51   1      1.9000000000000057      36.100000000000001                    47.5
    52   1      1.9000000000000057                      38      49.399999999999999
    53   1      3.8000000000000114      36.100000000000001      49.399999999999999
    54   1      3.8000000000000114                      38                    47.5
    55   1      3.8000000000000114      36.100000000000001      53.199999999999989
    56   1      3.8000000000000114                      38      51.299999999999997
    57   1      3.8000000000000114      36.100000000000001                      57
    58   1      3.8000000000000114                      38      55.100000000000001
    59   1      3.8000000000000114                      38      58.899999999999999
    60   1      3.8000000000000114      39.899999999999999      26.600000000000001
    61   1      3.8000000000000114      41.799999999999997      24.700000000000003
    62   1      3.8000000000000114      39.899999999999999      30.400000000000006
    63   1      3.8000000000000114      41.799999999999997                    28.5
    64   1      1.9000000000000057      41.799999999999997      34.200000000000003
    65   1      3.8000000000000114      39.899999999999999      34.200000000000003
    66   1      3.8000000000000114      41.799999999999997      32.300000000000004
    67   1      1.9000000000000057      39.899999999999999      36.100000000000001
    68   1      1.9000000000000057      41.799999999999997                      38
    69   1      3.8000000000000114      39.899999999999999                      38
    70   1      3.8000000000000114      41.799999999999997      36.100000000000001
    71   1      1.9000000000000057      39.899999999999999      39.899999999999999
    72   1      1.9000000000000057      41.799999999999997      41.799999999999997
    73   1      3.8000000000000114      39.899999999999999      41.799999999999997
    74   1      3.8000000000000114      41.799999999999997      39.899999999999999
    75   1      1.9000000000000057      39.899999999999999      43.700000000000003
    76   1      1.9000000000000057      41.799999999999997      45.599999999999994
    77   1      3.8000000000000114      39.899999999999999      45.599999999999994
    78   1      3.8000000000000114      41.799999999999997      43.700000000000003
    79   1      1.9000000000000057      39.899999999999999                    47.5
    80   1      1.9000000000000057      41.799999999999997      49.399999999999999
    81   1      3.8000000000000114      39.899999999999999      49.399999999999999
    82   1      3.8000000000000114      41.799999999999997                    47.5
    83   1      1.9000000000000057      39.899999999999999      51.299999999999997
    84   1      1.9000000000000057      41.799999999999997      53.199999999999989
    85   1      3.8000000000000114      39.899999999999999      53.199999999999989
    86   1      3.8000000000000114      41.799999999999997      51.299999999999997
    87   1      3.8000000000000114      39.899999999999999                      57
    88   1      3.8000000000000114      41.799999999999997      55.100000000000001
    89   1      3.8000000000000114      39.899999999999999       60.79999999999999
    90   1      3.8000000000000114      41.799999999999997      58.899999999999999
    91   1      3.8000000000000114      41.799999999999997      62.700000000000003
    92   1      3.8000000000000114      43.700000000000003      22.800000000000004
    93   1      3.8000000000000114      43.700000000000003      26.600000000000001
    94   1      3.8000000000000114      45.599999999999994      24.700000000000003
    95   1      3.8000000000000114      43.700000000000003      30.400000000000006
    96   1      3.8000000000000114      45.599999999999994                    28.5
    97   1      1.9000000000000057      43.700000000000003      32.300000000000004
    98   1      1.9000000000000057      45.599999999999994      34.200000000000003
    99   1      3.8000000000000114      43.700000000000003      34.200000000000003
   100   1      3.8000000000000114      45.599999999999994      32.300000000000004
   101   1      1.9000000000000057      43.700000000000003      36.100000000000001
   102   1      1.9000000000000057      45.599999999999994                      38
   103   1      3.8000000000000114      43.700000000000003                      38
   104   1      3.8000000000000114      45.599999999999994      36.100000000000001
   105   1      1.9000000000000057      43.700000000000003      39.899999999999999
   106   1      1.9000000000000057      45.599999999999994      41.799999999999997
   107   1      3.8000000000000114      43.700000000000003      41.799999999999997
   108   1      3.8000000000000114      45.599999999999994      39.899999999999999
   109   1      1.9000000000000057      43.700000000000003      43.700000000000003
   110   1      1.9000000000000057      45.599999999999994      45.599999999999994
   111   1      3.8000000000000114      43.700000000000003      45.599999999999994
   112   1      3.8000000000000114      45.599999999999994      43.700000000000003
   113   1      1.9000000000000057      43.700000000000003                    47.5
   114   1      1.9000000000000057      45.599999999999994      49.399999999999999
   115   1      3.8000000000000114      43.700000000000003      49.399999999999999
   116   1      3.8000000000000114      45.599999999999994                    47.5
   117   1      1.9000000000000057      43.700000000000003      51.299999999999997
   118   1      1.9000000000000057      45.599999999999994      53.199999999999989
   119   1      3.8000000000000114      43.700000000000003      53.199999999999989
   120   1      3.8000000000000114      45.599999999999994      51.299999999999997
   121   1      1.9000000000000057      43.700000000000003      55.100000000000001
   122   1      3.8000000000000114      43.700000000000003                      57
   123   1      3.8000000000000114      45.599999999999994      55.100000000000001
   124   1      3.8000000000000114      43.700000000000003       60.79999999999999
   125   1      3.8000000000000114      45.599999999999994      58.899999999999999
   126   1      3.8000000000000114      43.700000000000003      64.600000000000009
   127   1      3.8000000000000114      45.599999999999994      62.700000000000003
   128   1      3.8000000000000114                    47.5      26.600000000000001
   129   1      3.8000000000000114                    47.5      30.400000000000006
   130   1      3.8000000000000114      49.399999999999999                    28.5
   131   1      3.8000000000000114                    47.5      34.200000000000003
   132   1      3.8000000000000114      49.399999999999999      32.300000000000004
   133   1      1.9000000000000057                    47.5      36.100000000000001
   134   1      1.9000000000000057      49.399999999999999                      38
   135   1      3.8000000000000114                    47.5                      38
   136   1      3.8000000000000114      49.399999999999999      36.100000000000001
   137   1      1.9000000000000057                    47.5      39.899999999999999
   138   1      1.9000000000000057      49.399999999999999      41.799999999999997
   139   1      3.8000000000000114                    47.5      41.799999999999997
   140   1      3.8000000000000114      49.399999999999999      39.899999999999999
   141   1      1.9000000000000057                    47.5      43.700000000000003
   142   1      1.9000000000000057      49.399999999999999      45.599999999999994
   143   1      3.8000000000000114                    47.5      45.599999999999994
   144   1      3.8000000000000114      49.399999999999999      43.700000000000003
   145   1      1.9000000000000057                    47.5                    47.5
   146   1      1.9000000000000057      49.399999999999999      49.399999999999999
   147   1      3.8000000000000114                    47.5      49.399999999999999
   148   1      3.8000000000000114      49.399999999999999                    47.5
   149   1      1.9000000000000057                    47.5      51.299999999999997
   150   1      3.8000000000000114                    47.5      53.199999999999989
   151   1      3.8000000000000114      49.399999999999999      51.299999999999997
   152   1      3.8000000000000114                    47.5                      57
   153   1      3.8000000000000114      49.399999999999999      55.100000000000001
   154   1      3.8000000000000114                    47.5       60.79999999999999
   155   1      3.8000000000000114      49.399999999999999      58.899999999999999
   156   1      3.8000000000000114      51.299999999999997      30.400000000000006
   157   1      3.8000000000000114      51.299999999999997      34.200000000000003
   158   1      3.8000000000000114      53.199999999999989      32.300000000000004
   159   1      3.8000000000000114      51.299999999999997                      38
   160   1      3.8000000000000114      53.199999999999989      36.100000000000001
   161   1      1.9000000000000057      51.299999999999997      39.899999999999999
   162   1      1.9000000000000057      53.199999999999989      41.799999999999997
   163   1      3.8000000000000114      51.299999999999997      41.799999999999997
   164   1      3.8000000000000114      53.199999999999989      39.899999999999999
   165   1      1.9000000000000057      51.299999999999997      43.700000000000003
   166   1      1.9000000000000057      53.199999999999989      45.599999999999994
   167   1      3.8000000000000114      51.299999999999997      45.599999999999994
   168   1      3.8000000000000114      53.199999999999989      43.700000000000003
   169   1      1.9000000000000057      51.299999999999997                    47.5
   170   1      3.8000000000000114      51.299999999999997      49.399999999999999
   171   1      3.8000000000000114      53.199999999999989                    47.5
   172   1      3.8000000000000114      51.299999999999997      53.199999999999989
   173   1      3.8000000000000114      53.199999999999989      51.299999999999997
   174   1      3.8000000000000114      51.299999999999997                      57
   175   1      3.8000000000000114      53.199999999999989      55.100000000000001
   176   1      3.8000000000000114      55.100000000000001      34.200000000000003
   177   1      3.8000000000000114      55.100000000000001                      38
   178   1      3.8000000000000114                      57      36.100000000000001
   179   1      3.8000000000000114      55.100000000000001      41.799999999999997
   180   1      3.8000000000000114                      57      39.899999999999999
   181   1      1.9000000000000057      55.100000000000001      43.700000000000003
   182   1      3.8000000000000114      55.100000000000001      45.599999999999994
   183   1      3.8000000000000114                      57      43.700000000000003
   184   1      3.8000000000000114      55.100000000000001      49.399999999999999
   185   1      3.8000000000000114                      57                    47.5
   186   1      3.8000000000000114      55.100000000000001      53.199999999999989
   187   1      3.8000000000000114                      57      51.299999999999997
   188   1      3.8000000000000114      58.899999999999999                      38
   189   1      3.8000000000000114      58.899999999999999      41.799999999999997
   190   1      3.8000000000000114       60.79999999999999      39.899999999999999
   191   1      3.8000000000000114      58.899999999999999      45.599999999999994
   192   1      3.8000000000000114       60.79999999999999      43.700000000000003
   193   1      3.8000000000000114      58.899999999999999      49.399999999999999
   194   1      3.8000000000000114       60.79999999999999                    47.5
   195   1      3.8000000000000114      62.700000000000003      41.799999999999997
   196   1      3.8000000000000114      62.700000000000003      45.599999999999994
   197   1      3.8000000000000114      64.600000000000009      43.700000000000003
   198   1      7.6000000000000085      7.6000000000000085      39.899999999999999
   199   1      7.6000000000000085      7.6000000000000085      43.700000000000003
   200   1      7.6000000000000085      7.6000000000000085                    47.5
   201   1      7.6000000000000085      9.5000000000000071                      38
   202   1      7.6000000000000085      11.400000000000007      36.100000000000001
   203   1      7.6000000000000085      9.5000000000000071      41.799999999999997
   204   1      7.6000000000000085      11.400000000000007      39.899999999999999
   205   1      7.6000000000000085      9.5000000000000071      45.599999999999994
   206   1      7.6000000000000085      11.400000000000007      43.700000000000003
   207   1      7.6000000000000085      9.5000000000000071      49.399999999999999
   208   1      7.6000000000000085      11.400000000000007                    47.5
   209   1      7.6000000000000085      11.400000000000007      51.299999999999997
   210   1      7.6000000000000085      13.300000000000004      34.200000000000003
   211   1      7.6000000000000085      15.200000000000006      32.300000000000004
   212   1      7.6000000000000085      13.300000000000004                      38
   213   1      7.6000000000000085      15.200000000000006      36.100000000000001
   214   1      5.7000000000000091      15.200000000000006      41.799999999999997
   215   1      7.6000000000000085      13.300000000000004      41.799999999999997
   216   1      7.6000000000000085      15.200000000000006      39.899999999999999
   217   1      5.7000000000000091      13.300000000000004      43.700000000000003
   218   1      5.7000000000000091      15.200000000000006      45.599999999999994
   219   1      7.6000000000000085      13.300000000000004      45.599999999999994
   220   1      7.6000000000000085      15.200000000000006      43.700000000000003
   221   1      7.6000000000000085      13.300000000000004      49.399999999999999
   222   1      7.6000000000000085      15.200000000000006                    47.5
   223   1      7.6000000000000085      13.300000000000004      53.199999999999989
   224   1      7.6000000000000085      15.200000000000006      51.299999999999997
   225   1      7.6000000000000085      15.200000000000006      55.100000000000001
   226   1      7.6000000000000085      17.100000000000005      30.400000000000006
   227   1      7.6000000000000085      19.000000000000004                    28.5
   228   1      7.6000000000000085      17.100000000000005      34.200000000000003
   229   1      7.6000000000000085      19.000000000000004      32.300000000000004
   230   1      5.7000000000000091      19.000000000000004                      38
   231   1      7.6000000000000085      17.100000000000005                      38
   232   1      7.6000000000000085      19.000000000000004      36.100000000000001
   233   1      5.7000000000000091      17.100000000000005      39.899999999999999
   234   1      5.7000000000000091      19.000000000000004      41.799999999999997
   235   1      7.6000000000000085      17.100000000000005      41.799999999999997
   236   1      7.6000000000000085      19.000000000000004      39.899999999999999
   237   1      5.7000000000000091      17.100000000000005      43.700000000000003
   238   1      5.7000000000000091      19.000000000000004      45.599999999999994
   239   1      7.6000000000000085      17.100000000000005      45.599999999999994
   240   1      7.6000000000000085      19.000000000000004      43.700000000000003
   241   1      5.7000000000000091      17.100000000000005                    47.5
   242   1      5.7000000000000091      19.000000000000004      49.399999999999999
   243   1      7.6000000000000085      17.100000000000005      49.399999999999999
   244   1      7.6000000000000085      19.000000000000004                    47.5
   245   1      7.6000000000000085      17.100000000000005      53.199999999999989
   246   1      7.6000000000000085      19.000000000000004      51.299999999999997
   247   1      7.6000000000000085      17.100000000000005                      57
   248   1      7.6000000000000085      19.000000000000004      55.100000000000001
   249   1      7.6000000000000085      19.000000000000004      58.899999999999999
   250   1      7.6000000000000085      20.900000000000006      26.600000000000001
   251   1      7.6000000000000085      22.800000000000004      24.700000000000003
   252   1      7.6000000000000085      20.900000000000006      30.400000000000006
   253   1      7.6000000000000085      22.800000000000004                    28.5
   254   1      5.7000000000000091      22.800000000000004      34.200000000000003
   255   1      7.6000000000000085      20.900000000000006      34.200000000000003
   256   1      7.6000000000000085      22.800000000000004      32.300000000000004
   257   1      5.7000000000000091      20.900000000000006      36.100000000000001
   258   1      5.7000000000000091      22.800000000000004                      38
   259   1      7.6000000000000085      20.900000000000006                      38
   260   1      7.6000000000000085      22.800000000000004      36.100000000000001
   261   1      5.7000000000000091      20.900000000000006      39.899999999999999
   262   1      5.7000000000000091      22.800000000000004      41.799999999999997
   263   1      7.6000000000000085      20.900000000000006      41.799999999999997
   264   1      7.6000000000000085      22.800000000000004      39.899999999999999
   265   1      5.7000000000000091      20.900000000000006      43.700000000000003
   266   1      5.7000000000000091      22.800000000000004      45.599999999999994
   267   1      7.6000000000000085      20.900000000000006      45.599999999999994
   268   1      7.6000000000000085      22.800000000000004      43.700000000000003
   269   1      5.7000000000000091      20.900000000000006                    47.5
   270   1      5.7000000000000091      22.800000000000004      49.399999999999999
   271   1      7.6000000000000085      20.900000000000006      49.399999999999999
   272   1      7.6000000000000085      22.800000000000004                    47.5
   273   1      5.7000000000000091      20.900000000000006      51.299999999999997
   274   1      5.7000000000000091      22.800000000000004      53.199999999999989
   275   1      7.6000000000000085      20.900000000000006      53.199999999999989
   276   1      7.6000000000000085      22.800000000000004      51.299999999999997
   277   1      7.6000000000000085      20.900000000000006                      57
   278   1      7.6000000000000085      22.800000000000004      55.100000000000001
   279   1      7.6000000000000085      20.900000000000006       60.79999999999999
   280   1      7.6000000000000085      22.800000000000004      58.899999999999999
   281   1      7.6000000000000085      22.800000000000004      62.700000000000003
   282   1      7.6000000000000085      24.700000000000003      22.800000000000004
   283   1      7.6000000000000085      26.600000000000001      20.900000000000006
   284   1      7.6000000000000085      24.700000000000003      26.600000000000001
   285   1      7.6000000000000085      26.600000000000001      24.700000000000003
   286   1      5.7000000000000091      26.600000000000001      30.400000000000006
   287   1      7.6000000000000085      24.700000000000003      30.400000000000006
   288   1      7.6000000000000085      26.600000000000001                    28.5
   289   1      5.7000000000000091      24.700000000000003      32.300000000000004
   290   1      5.7000000000000091      26.600000000000001      34.200000000000003
   291   1      7.6000000000000085      24.700000000000003      34.200000000000003
   292   1      7.6000000000000085      26.600000000000001      32.300000000000004
   293   1      5.7000000000000091      24.700000000000003      36.100000000000001
   294   1      5.7000000000000091      26.600000000000001                      38
   295   1      7.6000000000000085      24.700000000000003                      38
   296   1      7.6000000000000085      26.600000000000001      36.100000000000001
   297   1      5.7000000000000091      24.700000000000003      39.899999999999999
   298   1      5.7000000000000091      26.600000000000001      41.799999999999997
   299   1      7.6000000000000085      24.700000000000003      41.799999999999997
   300   1      7.6000000000000085      26.600000000000001      39.899999999999999
   301   1      5.7000000000000091      24.700000000000003      43.700000000000003
   302   1      5.7000000000000091      26.600000000000001      45.599999999999994
   303   1      7.6000000000000085      24.700000000000003      45.599999999999994
   304   1      7.6000000000000085      26.600000000000001      43.700000000000003
   305   1      5.7000000000000091      24.700000000000003                    47.5
   306   1      5.7000000000000091      26.600000000000001      49.399999999999999
   307   1      7.6000000000000085      24.700000000000003      49.399999999999999
   308   1      7.6000000000000085      26.600000000000001                    47.5
   309   1      5.7000000000000091      24.700000000000003      51.299999999999997
   310   1      5.7000000000000091      26.600000000000001      53.199999999999989
   311   1      7.6000000000000085      24.700000000000003      53.199999999999989
   312   1      7.6000000000000085      26.600000000000001      51.299999999999997
   313   1      5.7000000000000091      24.700000000000003      55.100000000000001
   314   1      5.7000000000000091      26.600000000000001                      57
   315   1      7.6000000000000085      24.700000000000003                      57
   316   1      7.6000000000000085      26.600000000000001      55.100000000000001
   317   1      7.6000000000000085      24.700000000000003       60.79999999999999
   318   1      7.6000000000000085      26.600000000000001      58.899999999999999
   319   1      7.6000000000000085      24.700000000000003      64.600000000000009
   320   1      7.6000000000000085      26.600000000000001      62.700000000000003
   321   1      7.6000000000000085      26.600000000000001                    66.5
   322   1      7.6000000000000085                    28.5      19.000000000000004
   323   1      7.6000000000000085      30.400000000000006      17.100000000000005
   324   1      7.6000000000000085                    28.5      22.800000000000004
   325   1      7.6000000000000085      30.400000000000006      20.900000000000006
   326   1      5.7000000000000091      30.400000000000006      26.600000000000001
   327   1      7.6000000000000085                    28.5      26.600000000000001
   328   1      7.6000000000000085      30.400000000000006      24.700000000000003
   329   1      5.7000000000000091                    28.5                    28.5
   330   1      5.7000000000000091      30.400000000000006      30.400000000000006
   331   1      7.6000000000000085                    28.5      30.400000000000006
   332   1      7.6000000000000085      30.400000000000006                    28.5
   333   1      5.7000000000000091                    28.5      32.300000000000004
   334   1      5.7000000000000091      30.400000000000006      34.200000000000003
   335   1      7.6000000000000085                    28.5      34.200000000000003
   336   1      7.6000000000000085      30.400000000000006      32.300000000000004
   337   1      5.7000000000000091                    28.5      36.100000000000001
   338   1      5.7000000000000091      30.400000000000006                      38
   339   1      7.6000000000000085                    28.5                      38
   340   1      7.6000000000000085      30.400000000000006      36.100000000000001
   341   1      5.7000000000000091                    28.5      39.899999999999999
   342   1      5.7000000000000091      30.400000000000006      41.799999999999997
   343   1      7.6000000000000085                    28.5      41.799999999999997
   344   1      7.6000000000000085      30.400000000000006      39.899999999999999
   345   1      5.7000000000000091                    28.5      43.700000000000003
   346   1      5.7000000000000091      30.400000000000006      45.599999999999994
   347   1      7.6000000000000085                    28.5      45.599999999999994
   348   1      7.6000000000000085      30.400000000000006      43.700000000000003
   349   1      5.7000000000000091                    28.5                    47.5
   350   1      5.7000000000000091      30.400000000000006      49.399999999999999
   351   1      7.6000000000000085                    28.5      49.399999999999999
   352   1      7.6000000000000085      30.400000000000006                    47.5
   353   1      5.7000000000000091                    28.5      51.299999999999997
   354   1      5.7000000000000091      30.400000000000006      53.199999999999989
   355   1      7.6000000000000085                    28.5      53.199999999999989
   356   1      7.6000000000000085      30.400000000000006      51.299999999999997
   357   1      5.7000000000000091                    28.5      55.100000000000001
   358   1      5.7000000000000091      30.400000000000006                      57