model_files/PtAu/PtAu_30000/PtAu_510/PtAu_510_fcc_29899_temp.data (written by ASE) 

29899 	 atoms 
2  atom types
0.0                      88  xlo xhi
0.0                      88  ylo yhi
0.0                      88  zlo zhi


Atoms 

     1   1      2.0214999999999961      34.365499999999997      36.386999999999993
     2   1      2.0214999999999961      34.365499999999997      40.429999999999993
     3   1      2.0214999999999961      34.365499999999997      44.472999999999999
     4   1      2.0214999999999961      34.365499999999997      48.515999999999998
     5   1      2.0214999999999961      34.365499999999997      52.558999999999997
     6   1      2.0214999999999961      36.386999999999993      34.365499999999997
     7   1      2.0214999999999961      36.386999999999993      38.408499999999997
     8   1      2.0214999999999961      38.408499999999997      36.386999999999993
     9   1      2.0214999999999961      36.386999999999993      42.451499999999996
    10   1      2.0214999999999961      38.408499999999997      40.429999999999993
    11   1      2.0214999999999961      36.386999999999993      46.494500000000002
    12   1      2.0214999999999961      38.408499999999997      44.472999999999999
    13   1      2.0214999999999961      36.386999999999993      50.537500000000001
    14   1      2.0214999999999961      38.408499999999997      48.515999999999998
    15   1      2.0214999999999961      36.386999999999993      54.580500000000001
    16   1      2.0214999999999961      38.408499999999997      52.558999999999997
    17   1      2.0214999999999961      40.429999999999993      34.365499999999997
    18   1      2.0214999999999961      40.429999999999993      38.408499999999997
    19   1      2.0214999999999961      42.451499999999996      36.386999999999993
    20   1      2.0214999999999961      40.429999999999993      42.451499999999996
    21   1      2.0214999999999961      42.451499999999996      40.429999999999993
    22   1      2.0214999999999961      40.429999999999993      46.494500000000002
    23   1      2.0214999999999961      42.451499999999996      44.472999999999999
    24   1      2.0214999999999961      40.429999999999993      50.537500000000001
    25   1      2.0214999999999961      42.451499999999996      48.515999999999998
    26   1      2.0214999999999961      40.429999999999993      54.580500000000001
    27   1      2.0214999999999961      42.451499999999996      52.558999999999997
    28   1      2.0214999999999961      44.472999999999999      34.365499999999997
    29   1      2.0214999999999961      44.472999999999999      38.408499999999997
    30   1      2.0214999999999961      46.494500000000002      36.386999999999993
    31   1      2.0214999999999961      44.472999999999999      42.451499999999996
    32   1      2.0214999999999961      46.494500000000002      40.429999999999993
    33   1      87.999999999999986      44.472999999999999      44.472999999999999
    34   1      2.0214999999999961      44.472999999999999      46.494500000000002
    35   1      2.0214999999999961      46.494500000000002      44.472999999999999
    36   1      2.0214999999999961      44.472999999999999      50.537500000000001
    37   1      2.0214999999999961      46.494500000000002      48.515999999999998
    38   1      2.0214999999999961      44.472999999999999      54.580500000000001
    39   1      2.0214999999999961      46.494500000000002      52.558999999999997
    40   1      2.0214999999999961      48.515999999999998      34.365499999999997
    41   1      2.0214999999999961      48.515999999999998      38.408499999999997
    42   1      2.0214999999999961      50.537500000000001      36.386999999999993
    43   1      2.0214999999999961      48.515999999999998      42.451499999999996
    44   1      2.0214999999999961      50.537500000000001      40.429999999999993
    45   1      2.0214999999999961      48.515999999999998      46.494500000000002
    46   1      2.0214999999999961      50.537500000000001      44.472999999999999
    47   1      2.0214999999999961      48.515999999999998      50.537500000000001
    48   1      2.0214999999999961      50.537500000000001      48.515999999999998
    49   1      2.0214999999999961      48.515999999999998      54.580500000000001
    50   1      2.0214999999999961      50.537500000000001      52.558999999999997
    51   1      2.0214999999999961      52.558999999999997      34.365499999999997
    52   1      2.0214999999999961      52.558999999999997      38.408499999999997
    53   1      2.0214999999999961      54.580500000000001      36.386999999999993
    54   1      2.0214999999999961      52.558999999999997      42.451499999999996
    55   1      2.0214999999999961      54.580500000000001      40.429999999999993
    56   1      2.0214999999999961      52.558999999999997      46.494500000000002
    57   1      2.0214999999999961      54.580500000000001      44.472999999999999
    58   1      2.0214999999999961      52.558999999999997      50.537500000000001
    59   1      2.0214999999999961      54.580500000000001      48.515999999999998
    60   1      2.0214999999999961      52.558999999999997      54.580500000000001
    61   1      2.0214999999999961      54.580500000000001      52.558999999999997
    62   1      6.0644999999999953      14.150499999999994      16.171999999999993
    63   1      6.0644999999999953      14.150499999999994      20.214999999999996
    64   1      6.0644999999999953      14.150499999999994      24.257999999999996
    65   1      6.0644999999999953      14.150499999999994      28.300999999999995
    66   1      6.0644999999999953      14.150499999999994      32.343999999999994
    67   1      6.0644999999999953      14.150499999999994      36.386999999999993
    68   1      6.0644999999999953      14.150499999999994      40.429999999999993
    69   1      6.0644999999999953      14.150499999999994      44.472999999999999
    70   1      6.0644999999999953      14.150499999999994      48.515999999999998
    71   1      6.0644999999999953      14.150499999999994      52.558999999999997
    72   1      6.0644999999999953      14.150499999999994      56.601999999999997
    73   1      6.0644999999999953      14.150499999999994      60.644999999999996
    74   1      6.0644999999999953      14.150499999999994      64.688000000000002
    75   1      6.0644999999999953      14.150499999999994      68.730999999999995
    76   1      6.0644999999999953      14.150499999999994      72.774000000000001
    77   1      6.0644999999999953      16.171999999999993      14.150499999999994
    78   1      6.0644999999999953      16.171999999999993      18.193499999999993
    79   1      6.0644999999999953      18.193499999999993      16.171999999999993
    80   1      6.0644999999999953      16.171999999999993      22.236499999999996
    81   1      6.0644999999999953      18.193499999999993      20.214999999999996
    82   1      6.0644999999999953      16.171999999999993      26.279499999999995
    83   1      6.0644999999999953      18.193499999999993      24.257999999999996
    84   1      6.0644999999999953      16.171999999999993      30.322499999999998
    85   1      6.0644999999999953      18.193499999999993      28.300999999999995
    86   1      6.0644999999999953      16.171999999999993      34.365499999999997
    87   1      6.0644999999999953      18.193499999999993      32.343999999999994
    88   1      6.0644999999999953      16.171999999999993      38.408499999999997
    89   1      6.0644999999999953      18.193499999999993      36.386999999999993
    90   1      6.0644999999999953      16.171999999999993      42.451499999999996
    91   1      6.0644999999999953      18.193499999999993      40.429999999999993
    92   1      6.0644999999999953      16.171999999999993      46.494500000000002
    93   1      6.0644999999999953      18.193499999999993      44.472999999999999
    94   1      6.0644999999999953      16.171999999999993      50.537500000000001
    95   1      6.0644999999999953      18.193499999999993      48.515999999999998
    96   1      6.0644999999999953      16.171999999999993      54.580500000000001
    97   1      6.0644999999999953      18.193499999999993      52.558999999999997
    98   1      6.0644999999999953      16.171999999999993                 58.6235
    99   1      6.0644999999999953      18.193499999999993      56.601999999999997
   100   1      6.0644999999999953      16.171999999999993      62.666499999999999
   101   1      6.0644999999999953      18.193499999999993      60.644999999999996
   102   1      6.0644999999999953      16.171999999999993      66.709500000000006
   103   1      6.0644999999999953      18.193499999999993      64.688000000000002
   104   1      6.0644999999999953      16.171999999999993      70.752499999999998
   105   1      6.0644999999999953      18.193499999999993      68.730999999999995
   106   1      6.0644999999999953      16.171999999999993      74.795500000000004
   107   1      6.0644999999999953      18.193499999999993      72.774000000000001
   108   1      6.0644999999999953      20.214999999999996      14.150499999999994
   109   1      6.0644999999999953      20.214999999999996      18.193499999999993
   110   1      6.0644999999999953      22.236499999999996      16.171999999999993
   111   1      6.0644999999999953      20.214999999999996      22.236499999999996
   112   1      6.0644999999999953      22.236499999999996      20.214999999999996
   113   1      6.0644999999999953      20.214999999999996      26.279499999999995
   114   1      6.0644999999999953      22.236499999999996      24.257999999999996
   115   1      6.0644999999999953      20.214999999999996      30.322499999999998
   116   1      6.0644999999999953      22.236499999999996      28.300999999999995
   117   1      6.0644999999999953      20.214999999999996      34.365499999999997
   118   1      6.0644999999999953      22.236499999999996      32.343999999999994
   119   1      6.0644999999999953      20.214999999999996      38.408499999999997
   120   1      6.0644999999999953      22.236499999999996      36.386999999999993
   121   1      6.0644999999999953      20.214999999999996      42.451499999999996
   122   1      6.0644999999999953      22.236499999999996      40.429999999999993
   123   1      6.0644999999999953      20.214999999999996      46.494500000000002
   124   1      6.0644999999999953      22.236499999999996      44.472999999999999
   125   1      6.0644999999999953      20.214999999999996      50.537500000000001
   126   1      6.0644999999999953      22.236499999999996      48.515999999999998
   127   1      6.0644999999999953      20.214999999999996      54.580500000000001
   128   1      6.0644999999999953      22.236499999999996      52.558999999999997
   129   1      6.0644999999999953      20.214999999999996                 58.6235
   130   1      6.0644999999999953      22.236499999999996      56.601999999999997
   131   1      6.0644999999999953      20.214999999999996      62.666499999999999
   132   1      6.0644999999999953      22.236499999999996      60.644999999999996
   133   1      6.0644999999999953      20.214999999999996      66.709500000000006
   134   1      6.0644999999999953      22.236499999999996      64.688000000000002
   135   1      6.0644999999999953      20.214999999999996      70.752499999999998
   136   1      6.0644999999999953      22.236499999999996      68.730999999999995
   137   1      6.0644999999999953      20.214999999999996      74.795500000000004
   138   1      6.0644999999999953      22.236499999999996      72.774000000000001
   139   1      6.0644999999999953      24.257999999999996      14.150499999999994
   140   1      6.0644999999999953      24.257999999999996      18.193499999999993
   141   1      6.0644999999999953      26.279499999999995      16.171999999999993
   142   1      6.0644999999999953      24.257999999999996      22.236499999999996
   143   1      6.0644999999999953      26.279499999999995      20.214999999999996
   144   1      4.0429999999999922      24.257999999999996      24.257999999999996
   145   1      4.0429999999999922      26.279499999999995      26.279499999999995
   146   1      6.0644999999999953      24.257999999999996      26.279499999999995
   147   1      6.0644999999999953      26.279499999999995      24.257999999999996
   148   1      4.0429999999999922      24.257999999999996      28.300999999999995
   149   1      4.0429999999999922      26.279499999999995      30.322499999999998
   150   1      6.0644999999999953      24.257999999999996      30.322499999999998
   151   1      6.0644999999999953      26.279499999999995      28.300999999999995
   152   1      4.0429999999999922      24.257999999999996      32.343999999999994
   153   1      4.0429999999999922      26.279499999999995      34.365499999999997
   154   1      6.0644999999999953      24.257999999999996      34.365499999999997
   155   1      6.0644999999999953      26.279499999999995      32.343999999999994
   156   1      4.0429999999999922      24.257999999999996      36.386999999999993
   157   1      4.0429999999999922      26.279499999999995      38.408499999999997
   158   1      6.0644999999999953      24.257999999999996      38.408499999999997
   159   1      6.0644999999999953      26.279499999999995      36.386999999999993
   160   1      4.0429999999999922      24.257999999999996      40.429999999999993
   161   1      4.0429999999999922      26.279499999999995      42.451499999999996
   162   1      6.0644999999999953      24.257999999999996      42.451499999999996
   163   1      6.0644999999999953      26.279499999999995      40.429999999999993
   164   1      4.0429999999999922      24.257999999999996      44.472999999999999
   165   1      4.0429999999999922      26.279499999999995      46.494500000000002
   166   1      6.0644999999999953      24.257999999999996      46.494500000000002
   167   1      6.0644999999999953      26.279499999999995      44.472999999999999
   168   1      4.0429999999999922      24.257999999999996      48.515999999999998
   169   1      4.0429999999999922      26.279499999999995      50.537500000000001
   170   1      6.0644999999999953      24.257999999999996      50.537500000000001
   171   1      6.0644999999999953      26.279499999999995      48.515999999999998
   172   1      4.0429999999999922      24.257999999999996      52.558999999999997
   173   1      4.0429999999999922      26.279499999999995      54.580500000000001
   174   1      6.0644999999999953      24.257999999999996      54.580500000000001
   175   1      6.0644999999999953      26.279499999999995      52.558999999999997
   176   1      4.0429999999999922      24.257999999999996      56.601999999999997
   177   1      4.0429999999999922      26.279499999999995                 58.6235
   178   1      6.0644999999999953      24.257999999999996                 58.6235
   179   1      6.0644999999999953      26.279499999999995      56.601999999999997
   180   1      4.0429999999999922      24.257999999999996      60.644999999999996
   181   1      4.0429999999999922      26.279499999999995      62.666499999999999
   182   1      6.0644999999999953      24.257999999999996      62.666499999999999
   183   1      6.0644999999999953      26.279499999999995      60.644999999999996
   184   1      4.0429999999999922      24.257999999999996      64.688000000000002
   185   1      6.0644999999999953      24.257999999999996      66.709500000000006
   186   1      6.0644999999999953      26.279499999999995      64.688000000000002
   187   1      6.0644999999999953      24.257999999999996      70.752499999999998
   188   1      6.0644999999999953      26.279499999999995      68.730999999999995
   189   1      6.0644999999999953      24.257999999999996      74.795500000000004
   190   1      6.0644999999999953      26.279499999999995      72.774000000000001
   191   1      6.0644999999999953      28.300999999999995      14.150499999999994
   192   1      6.0644999999999953      28.300999999999995      18.193499999999993
   193   1      6.0644999999999953      30.322499999999998      16.171999999999993
   194   1      6.0644999999999953      28.300999999999995      22.236499999999996
   195   1      6.0644999999999953      30.322499999999998      20.214999999999996
   196   1      4.0429999999999922      28.300999999999995      24.257999999999996
   197   1      4.0429999999999922      30.322499999999998      26.279499999999995
   198   1      6.0644999999999953      28.300999999999995      26.279499999999995
   199   1      6.0644999999999953      30.322499999999998      24.257999999999996
   200   1      4.0429999999999922      28.300999999999995      28.300999999999995
   201   1      4.0429999999999922      30.322499999999998      30.322499999999998
   202   1      6.0644999999999953      28.300999999999995      30.322499999999998
   203   1      6.0644999999999953      30.322499999999998      28.300999999999995
   204   1      4.0429999999999922      28.300999999999995      32.343999999999994
   205   1      4.0429999999999922      30.322499999999998      34.365499999999997
   206   1      6.0644999999999953      28.300999999999995      34.365499999999997
   207   1      6.0644999999999953      30.322499999999998      32.343999999999994
   208   1      4.0429999999999922      28.300999999999995      36.386999999999993
   209   1      4.0429999999999922      30.322499999999998      38.408499999999997
   210   1      6.0644999999999953      28.300999999999995      38.408499999999997
   211   1      6.0644999999999953      30.322499999999998      36.386999999999993
   212   1      4.0429999999999922      28.300999999999995      40.429999999999993
   213   1      4.0429999999999922      30.322499999999998      42.451499999999996
   214   1      6.0644999999999953      28.300999999999995      42.451499999999996
   215   1      6.0644999999999953      30.322499999999998      40.429999999999993
   216   1      4.0429999999999922      28.300999999999995      44.472999999999999
   217   1      4.0429999999999922      30.322499999999998      46.494500000000002
   218   1      6.0644999999999953      28.300999999999995      46.494500000000002
   219   1      6.0644999999999953      30.322499999999998      44.472999999999999
   220   1      4.0429999999999922      28.300999999999995      48.515999999999998
   221   1      4.0429999999999922      30.322499999999998      50.537500000000001
   222   1      6.0644999999999953      28.300999999999995      50.537500000000001
   223   1      6.0644999999999953      30.322499999999998      48.515999999999998
   224   1      4.0429999999999922      28.300999999999995      52.558999999999997
   225   1      4.0429999999999922      30.322499999999998      54.580500000000001
   226   1      6.0644999999999953      28.300999999999995      54.580500000000001
   227   1      6.0644999999999953      30.322499999999998      52.558999999999997
   228   1      4.0429999999999922      28.300999999999995      56.601999999999997
   229   1      4.0429999999999922      30.322499999999998                 58.6235
   230   1      6.0644999999999953      28.300999999999995                 58.6235
   231   1      6.0644999999999953      30.322499999999998      56.601999999999997
   232   1      4.0429999999999922      28.300999999999995      60.644999999999996
   233   1      4.0429999999999922      30.322499999999998      62.666499999999999
   234   1      6.0644999999999953      28.300999999999995      62.666499999999999
   235   1      6.0644999999999953      30.322499999999998      60.644999999999996
   236   1      4.0429999999999922      28.300999999999995      64.688000000000002
   237   1      6.0644999999999953      28.300999999999995      66.709500000000006
   238   1      6.0644999999999953      30.322499999999998      64.688000000000002
   239   1      6.0644999999999953      28.300999999999995      70.752499999999998
   240   1      6.0644999999999953      30.322499999999998      68.730999999999995
   241   1      6.0644999999999953      28.300999999999995      74.795500000000004
   242   1      6.0644999999999953      30.322499999999998      72.774000000000001
   243   1      6.0644999999999953      32.343999999999994      14.150499999999994
   244   1      6.0644999999999953      32.343999999999994      18.193499999999993
   245   1      6.0644999999999953      34.365499999999997      16.171999999999993
   246   1      6.0644999999999953      32.343999999999994      22.236499999999996
   247   1      6.0644999999999953      34.365499999999997      20.214999999999996
   248   1      4.0429999999999922      32.343999999999994      24.257999999999996
   249   1      4.0429999999999922      34.365499999999997      26.279499999999995
   250   1      6.0644999999999953      32.343999999999994      26.279499999999995
   251   1      6.0644999999999953      34.365499999999997      24.257999999999996
   252   1      4.0429999999999922      32.343999999999994      28.300999999999995
   253   1      4.0429999999999922      34.365499999999997      30.322499999999998
   254   1      6.0644999999999953      32.343999999999994      30.322499999999998
   255   1      6.0644999999999953      34.365499999999997      28.300999999999995
   256   1      4.0429999999999922      32.343999999999994      32.343999999999994
   257   1      4.0429999999999922      34.365499999999997      34.365499999999997
   258   1      6.0644999999999953      32.343999999999994      34.365499999999997
   259   1      6.0644999999999953      34.365499999999997      32.343999999999994
   260   1      4.0429999999999922      32.343999999999994      36.386999999999993
   261   1      4.0429999999999922      34.365499999999997      38.408499999999997
   262   1      6.0644999999999953      32.343999999999994      38.408499999999997
   263   1      6.0644999999999953      34.365499999999997      36.386999999999993
   264   1      4.0429999999999922      32.343999999999994      40.429999999999993
   265   1      4.0429999999999922      34.365499999999997      42.451499999999996
   266   1      6.0644999999999953      32.343999999999994      42.451499999999996
   267   1      6.0644999999999953      34.365499999999997      40.429999999999993
   268   1      4.0429999999999922      32.343999999999994      44.472999999999999
   269   1      4.0429999999999922      34.365499999999997      46.494500000000002
   270   1      6.0644999999999953      32.343999999999994      46.494500000000002
   271   1      6.0644999999999953      34.365499999999997      44.472999999999999
   272   1      4.0429999999999922      32.343999999999994      48.515999999999998
   273   1      4.0429999999999922      34.365499999999997      50.537500000000001
   274   1      6.0644999999999953      32.343999999999994      50.537500000000001
   275   1      6.0644999999999953      34.365499999999997      48.515999999999998
   276   1      4.0429999999999922      32.343999999999994      52.558999999999997
   277   1      4.0429999999999922      34.365499999999997      54.580500000000001
   278   1      6.0644999999999953      32.343999999999994      54.580500000000001
   279   1      6.0644999999999953      34.365499999999997      52.558999999999997
   280   1      4.0429999999999922      32.343999999999994      56.601999999999997
   281   1      4.0429999999999922      34.365499999999997                 58.6235
   282   1      6.0644999999999953      32.343999999999994                 58.6235
   283   1      6.0644999999999953      34.365499999999997      56.601999999999997
   284   1      4.0429999999999922      32.343999999999994      60.644999999999996
   285   1      4.0429999999999922      34.365499999999997      62.666499999999999
   286   1      6.0644999999999953      32.343999999999994      62.666499999999999
   287   1      6.0644999999999953      34.365499999999997      60.644999999999996
   288   1      4.0429999999999922      32.343999999999994      64.688000000000002
   289   1      6.0644999999999953      32.343999999999994      66.709500000000006
   290   1      6.0644999999999953      34.365499999999997      64.688000000000002
   291   1      6.0644999999999953      32.343999999999994      70.752499999999998
   292   1      6.0644999999999953      34.365499999999997      68.730999999999995
   293   1      6.0644999999999953      32.343999999999994      74.795500000000004
   294   1      6.0644999999999953      34.365499999999997      72.774000000000001
   295   1      6.0644999999999953      36.386999999999993      14.150499999999994
   296   1      6.0644999999999953      36.386999999999993      18.193499999999993
   297   1      6.0644999999999953      38.408499999999997      16.171999999999993
   298   1      6.0644999999999953      36.386999999999993      22.236499999999996
   299   1      6.0644999999999953      38.408499999999997      20.214999999999996
   300   1      4.0429999999999922      36.386999999999993      24.257999999999996
   301   1      4.0429999999999922      38.408499999999997      26.279499999999995
   302   1      6.0644999999999953      36.386999999999993      26.279499999999995
   303   1      6.0644999999999953      38.408499999999997      24.257999999999996
   304   1      4.0429999999999922      36.386999999999993      28.300999999999995
   305   1      4.0429999999999922      38.408499999999997      30.322499999999998
   306   1      6.0644999999999953      36.386999999999993      30.322499999999998
   307   1      6.0644999999999953      38.408499999999997      28.300999999999995
   308   1      4.0429999999999922      36.386999999999993      32.343999999999994
   309   1      4.0429999999999922      38.408499999999997      34.365499999999997
   310   1      6.0644999999999953      36.386999999999993      34.365499999999997
   311   1      6.0644999999999953      38.408499999999997      32.343999999999994
   312   1      4.0429999999999922      36.386999999999993      36.386999999999993
   313   1      4.0429999999999922      38.408499999999997      38.408499999999997
   314   1      6.0644999999999953      36.386999999999993      38.408499999999997
   315   1      6.0644999999999953      38.408499999999997      36.386999999999993
   316   1      4.0429999999999922      36.386999999999993      40.429999999999993
   317   1      4.0429999999999922      38.408499999999997      42.451499999999996
   318   1      6.0644999999999953      36.386999999999993      42.451499999999996
   319   1      6.0644999999999953      38.408499999999997      40.429999999999993
   320   1      4.0429999999999922      36.386999999999993      44.472999999999999
   321   1      4.0429999999999922      38.408499999999997      46.494500000000002
   322   1      6.0644999999999953      36.386999999999993      46.494500000000002
   323   1      6.0644999999999953      38.408499999999997      44.472999999999999
   324   1      4.0429999999999922      36.386999999999993      48.515999999999998
   325   1      4.0429999999999922      38.408499999999997      50.537500000000001
   326   1      6.0644999999999953      36.386999999999993      50.537500000000001
   327   1      6.0644999999999953      38.408499999999997      48.515999999999998
   328   1      4.0429999999999922      36.386999999999993      52.558999999999997
   329   1      4.0429999999999922      38.408499999999997      54.580500000000001
   330   1      6.0644999999999953      36.386999999999993      54.580500000000001
   331   1      6.0644999999999953      38.408499999999997      52.558999999999997
   332   1      4.0429999999999922      36.386999999999993      56.601999999999997
   333   1      4.0429999999999922      38.408499999999997                 58.6235
   334   1      6.0644999999999953      36.386999999999993                 58.6235
   335   1      6.0644999999999953      38.408499999999997      56.601999999999997
   336   1      4.0429999999999922      36.386999999999993      60.644999999999996
   337   1      4.0429999999999922      38.408499999999997      62.666499999999999
   338   1      6.0644999999999953      36.386999999999993      62.666499999999999
   339   1      6.0644999999999953      38.408499999999997      60.644999999999996
   340   1      4.0429999999999922      36.386999999999993      64.688000000000002
   341   1      6.0644999999999953      36.386999999999993      66.709500000000006
   342   1      6.0644999999999953      38.408499999999997      64.688000000000002
   343   1      6.0644999999999953      36.386999999999993      70.752499999999998
   344   1      6.0644999999999953      38.408499999999997      68.730999999999995
   345   1      6.0644999999999953      36.386999999999993      74.795500000000004
   346   1      6.0644999999999953      38.408499999999997      72.774000000000001
   347   1      6.0644999999999953      40.429999999999993      14.150499999999994
   348   1      6.0644999999999953      40.429999999999993      18.193499999999993
   349   1      6.0644999999999953      42.451499999999996      16.171999999999993
   350   1      6.0644999999999953      40.429999999999993      22.236499999999996
   351   1      6.0644999999999953      42.451499999999996      20.214999999999996
   352   1      4.0429999999999922      40.429999999999993      24.257999999999996
   353   1      4.0429999999999922      42.451499999999996      26.279499999999995
   354   1      6.0644999999999953      40.429999999999993      26.279499999999995
   355   1      6.0644999999999953      42.451499999999996      24.257999999999996
   356   1      4.0429999999999922      40.429999999999993      28.300999999999995
   357   1      4.0429999999999922      42.451499999999996      30.322499999999998
   358   1      6.0644999999999953      40.429999999999993      30.322499999999998