model_files/Fe/Fe_30000/Fe_540/data.Fe_540_bcc_29765 (written by ASE) 

29765 	 atoms 
1  atom types
0.0                      80  xlo xhi
0.0                      80  ylo yhi
0.0                      80  zlo zhi


Atoms 

     1   1      79.999999999999986       38.74499999999999       38.74499999999999
     2   1      1.4349999999999952      37.309999999999988       38.74499999999999
     3   1      1.4349999999999952       38.74499999999999      37.309999999999988
     4   1      79.999999999999986       38.74499999999999      41.614999999999995
     5   1      1.4349999999999952      37.309999999999988      41.614999999999995
     6   1      1.4349999999999952       38.74499999999999                   40.18
     7   1      1.4349999999999952       38.74499999999999       43.04999999999999
     8   1      79.999999999999986      41.614999999999995       38.74499999999999
     9   1      1.4349999999999952                   40.18       38.74499999999999
    10   1      1.4349999999999952      41.614999999999995      37.309999999999988
    11   1      79.999999999999986                   40.18                   40.18
    12   1      79.999999999999986      41.614999999999995      41.614999999999995
    13   1      1.4349999999999952                   40.18      41.614999999999995
    14   1      1.4349999999999952      41.614999999999995                   40.18
    15   1      1.4349999999999952      41.614999999999995       43.04999999999999
    16   1      1.4349999999999952       43.04999999999999       38.74499999999999
    17   1      1.4349999999999952       43.04999999999999      41.614999999999995
    18   1      2.8699999999999974      35.874999999999993      35.874999999999993
    19   1      4.3049999999999926      34.439999999999991      35.874999999999993
    20   1      4.3049999999999926      35.874999999999993      34.439999999999991
    21   1      2.8699999999999974      35.874999999999993       38.74499999999999
    22   1      4.3049999999999926      34.439999999999991       38.74499999999999
    23   1      4.3049999999999926      35.874999999999993      37.309999999999988
    24   1      2.8699999999999974      35.874999999999993      41.614999999999995
    25   1      4.3049999999999926      34.439999999999991      41.614999999999995
    26   1      4.3049999999999926      35.874999999999993                   40.18
    27   1      2.8699999999999974      35.874999999999993      44.484999999999992
    28   1      4.3049999999999926      34.439999999999991      44.484999999999992
    29   1      4.3049999999999926      35.874999999999993       43.04999999999999
    30   1      4.3049999999999926      35.874999999999993      45.919999999999987
    31   1      2.8699999999999974       38.74499999999999      35.874999999999993
    32   1      4.3049999999999926      37.309999999999988      35.874999999999993
    33   1      4.3049999999999926       38.74499999999999      34.439999999999991
    34   1      2.8699999999999974      37.309999999999988      37.309999999999988
    35   1      2.8699999999999974       38.74499999999999       38.74499999999999
    36   1      4.3049999999999926      37.309999999999988       38.74499999999999
    37   1      4.3049999999999926       38.74499999999999      37.309999999999988
    38   1      2.8699999999999974      37.309999999999988                   40.18
    39   1      2.8699999999999974       38.74499999999999      41.614999999999995
    40   1      4.3049999999999926      37.309999999999988      41.614999999999995
    41   1      4.3049999999999926       38.74499999999999                   40.18
    42   1      2.8699999999999974      37.309999999999988       43.04999999999999
    43   1      2.8699999999999974       38.74499999999999      44.484999999999992
    44   1      4.3049999999999926      37.309999999999988      44.484999999999992
    45   1      4.3049999999999926       38.74499999999999       43.04999999999999
    46   1      4.3049999999999926       38.74499999999999      45.919999999999987
    47   1      2.8699999999999974      41.614999999999995      35.874999999999993
    48   1      4.3049999999999926                   40.18      35.874999999999993
    49   1      4.3049999999999926      41.614999999999995      34.439999999999991
    50   1      2.8699999999999974                   40.18      37.309999999999988
    51   1      2.8699999999999974      41.614999999999995       38.74499999999999
    52   1      4.3049999999999926                   40.18       38.74499999999999
    53   1      4.3049999999999926      41.614999999999995      37.309999999999988
    54   1      2.8699999999999974                   40.18                   40.18
    55   1      2.8699999999999974      41.614999999999995      41.614999999999995
    56   1      4.3049999999999926                   40.18      41.614999999999995
    57   1      4.3049999999999926      41.614999999999995                   40.18
    58   1      2.8699999999999974                   40.18       43.04999999999999
    59   1      2.8699999999999974      41.614999999999995      44.484999999999992
    60   1      4.3049999999999926                   40.18      44.484999999999992
    61   1      4.3049999999999926      41.614999999999995       43.04999999999999
    62   1      4.3049999999999926      41.614999999999995      45.919999999999987
    63   1      2.8699999999999974      44.484999999999992      35.874999999999993
    64   1      4.3049999999999926       43.04999999999999      35.874999999999993
    65   1      4.3049999999999926      44.484999999999992      34.439999999999991
    66   1      2.8699999999999974       43.04999999999999      37.309999999999988
    67   1      2.8699999999999974      44.484999999999992       38.74499999999999
    68   1      4.3049999999999926       43.04999999999999       38.74499999999999
    69   1      4.3049999999999926      44.484999999999992      37.309999999999988
    70   1      2.8699999999999974       43.04999999999999                   40.18
    71   1      2.8699999999999974      44.484999999999992      41.614999999999995
    72   1      4.3049999999999926       43.04999999999999      41.614999999999995
    73   1      4.3049999999999926      44.484999999999992                   40.18
    74   1      2.8699999999999974       43.04999999999999       43.04999999999999
    75   1      2.8699999999999974      44.484999999999992      44.484999999999992
    76   1      4.3049999999999926       43.04999999999999      44.484999999999992
    77   1      4.3049999999999926      44.484999999999992       43.04999999999999
    78   1      4.3049999999999926      44.484999999999992      45.919999999999987
    79   1      4.3049999999999926      45.919999999999987      35.874999999999993
    80   1      4.3049999999999926      45.919999999999987       38.74499999999999
    81   1      4.3049999999999926      45.919999999999987      41.614999999999995
    82   1      4.3049999999999926      45.919999999999987      44.484999999999992
    83   1       7.174999999999998      30.134999999999991      31.569999999999997
    84   1       7.174999999999998      30.134999999999991      34.439999999999991
    85   1       7.174999999999998      30.134999999999991      37.309999999999988
    86   1       7.174999999999998      30.134999999999991                   40.18
    87   1       7.174999999999998      30.134999999999991       43.04999999999999
    88   1       7.174999999999998      30.134999999999991      45.919999999999987
    89   1       7.174999999999998      30.134999999999991      48.789999999999992
    90   1       7.174999999999998      31.569999999999997      30.134999999999991
    91   1      5.7399999999999949      31.569999999999997      31.569999999999997
    92   1      5.7399999999999949      33.004999999999995      33.004999999999995
    93   1       7.174999999999998      31.569999999999997      33.004999999999995
    94   1       7.174999999999998      33.004999999999995      31.569999999999997
    95   1      5.7399999999999949      31.569999999999997      34.439999999999991
    96   1      5.7399999999999949      33.004999999999995      35.874999999999993
    97   1       7.174999999999998      31.569999999999997      35.874999999999993
    98   1       7.174999999999998      33.004999999999995      34.439999999999991
    99   1      5.7399999999999949      31.569999999999997      37.309999999999988
   100   1      5.7399999999999949      33.004999999999995       38.74499999999999
   101   1       7.174999999999998      31.569999999999997       38.74499999999999
   102   1       7.174999999999998      33.004999999999995      37.309999999999988
   103   1      5.7399999999999949      31.569999999999997                   40.18
   104   1      5.7399999999999949      33.004999999999995      41.614999999999995
   105   1       7.174999999999998      31.569999999999997      41.614999999999995
   106   1       7.174999999999998      33.004999999999995                   40.18
   107   1      5.7399999999999949      31.569999999999997       43.04999999999999
   108   1      5.7399999999999949      33.004999999999995      44.484999999999992
   109   1       7.174999999999998      31.569999999999997      44.484999999999992
   110   1       7.174999999999998      33.004999999999995       43.04999999999999
   111   1      5.7399999999999949      31.569999999999997      45.919999999999987
   112   1      5.7399999999999949      33.004999999999995       47.35499999999999
   113   1       7.174999999999998      31.569999999999997       47.35499999999999
   114   1       7.174999999999998      33.004999999999995      45.919999999999987
   115   1      5.7399999999999949      31.569999999999997      48.789999999999992
   116   1       7.174999999999998      31.569999999999997      50.225000000000001
   117   1       7.174999999999998      33.004999999999995      48.789999999999992
   118   1       7.174999999999998      34.439999999999991      30.134999999999991
   119   1      5.7399999999999949      34.439999999999991      31.569999999999997
   120   1      5.7399999999999949      35.874999999999993      33.004999999999995
   121   1       7.174999999999998      34.439999999999991      33.004999999999995
   122   1       7.174999999999998      35.874999999999993      31.569999999999997
   123   1      5.7399999999999949      34.439999999999991      34.439999999999991
   124   1      5.7399999999999949      35.874999999999993      35.874999999999993
   125   1       7.174999999999998      34.439999999999991      35.874999999999993
   126   1       7.174999999999998      35.874999999999993      34.439999999999991
   127   1      5.7399999999999949      34.439999999999991      37.309999999999988
   128   1      5.7399999999999949      35.874999999999993       38.74499999999999
   129   1       7.174999999999998      34.439999999999991       38.74499999999999
   130   1       7.174999999999998      35.874999999999993      37.309999999999988
   131   1      5.7399999999999949      34.439999999999991                   40.18
   132   1      5.7399999999999949      35.874999999999993      41.614999999999995
   133   1       7.174999999999998      34.439999999999991      41.614999999999995
   134   1       7.174999999999998      35.874999999999993                   40.18
   135   1      5.7399999999999949      34.439999999999991       43.04999999999999
   136   1      5.7399999999999949      35.874999999999993      44.484999999999992
   137   1       7.174999999999998      34.439999999999991      44.484999999999992
   138   1       7.174999999999998      35.874999999999993       43.04999999999999
   139   1      5.7399999999999949      34.439999999999991      45.919999999999987
   140   1      5.7399999999999949      35.874999999999993       47.35499999999999
   141   1       7.174999999999998      34.439999999999991       47.35499999999999
   142   1       7.174999999999998      35.874999999999993      45.919999999999987
   143   1      5.7399999999999949      34.439999999999991      48.789999999999992
   144   1       7.174999999999998      34.439999999999991      50.225000000000001
   145   1       7.174999999999998      35.874999999999993      48.789999999999992
   146   1       7.174999999999998      37.309999999999988      30.134999999999991
   147   1      5.7399999999999949      37.309999999999988      31.569999999999997
   148   1      5.7399999999999949       38.74499999999999      33.004999999999995
   149   1       7.174999999999998      37.309999999999988      33.004999999999995
   150   1       7.174999999999998       38.74499999999999      31.569999999999997
   151   1      5.7399999999999949      37.309999999999988      34.439999999999991
   152   1      5.7399999999999949       38.74499999999999      35.874999999999993
   153   1       7.174999999999998      37.309999999999988      35.874999999999993
   154   1       7.174999999999998       38.74499999999999      34.439999999999991
   155   1      5.7399999999999949      37.309999999999988      37.309999999999988
   156   1      5.7399999999999949       38.74499999999999       38.74499999999999
   157   1       7.174999999999998      37.309999999999988       38.74499999999999
   158   1       7.174999999999998       38.74499999999999      37.309999999999988
   159   1      5.7399999999999949      37.309999999999988                   40.18
   160   1      5.7399999999999949       38.74499999999999      41.614999999999995
   161   1       7.174999999999998      37.309999999999988      41.614999999999995
   162   1       7.174999999999998       38.74499999999999                   40.18
   163   1      5.7399999999999949      37.309999999999988       43.04999999999999
   164   1      5.7399999999999949       38.74499999999999      44.484999999999992
   165   1       7.174999999999998      37.309999999999988      44.484999999999992
   166   1       7.174999999999998       38.74499999999999       43.04999999999999
   167   1      5.7399999999999949      37.309999999999988      45.919999999999987
   168   1      5.7399999999999949       38.74499999999999       47.35499999999999
   169   1       7.174999999999998      37.309999999999988       47.35499999999999
   170   1       7.174999999999998       38.74499999999999      45.919999999999987
   171   1      5.7399999999999949      37.309999999999988      48.789999999999992
   172   1       7.174999999999998      37.309999999999988      50.225000000000001
   173   1       7.174999999999998       38.74499999999999      48.789999999999992
   174   1       7.174999999999998                   40.18      30.134999999999991
   175   1      5.7399999999999949                   40.18      31.569999999999997
   176   1      5.7399999999999949      41.614999999999995      33.004999999999995
   177   1       7.174999999999998                   40.18      33.004999999999995
   178   1       7.174999999999998      41.614999999999995      31.569999999999997
   179   1      5.7399999999999949                   40.18      34.439999999999991
   180   1      5.7399999999999949      41.614999999999995      35.874999999999993
   181   1       7.174999999999998                   40.18      35.874999999999993
   182   1       7.174999999999998      41.614999999999995      34.439999999999991
   183   1      5.7399999999999949                   40.18      37.309999999999988
   184   1      5.7399999999999949      41.614999999999995       38.74499999999999
   185   1       7.174999999999998                   40.18       38.74499999999999
   186   1       7.174999999999998      41.614999999999995      37.309999999999988
   187   1      5.7399999999999949                   40.18                   40.18
   188   1      5.7399999999999949      41.614999999999995      41.614999999999995
   189   1       7.174999999999998                   40.18      41.614999999999995
   190   1       7.174999999999998      41.614999999999995                   40.18
   191   1      5.7399999999999949                   40.18       43.04999999999999
   192   1      5.7399999999999949      41.614999999999995      44.484999999999992
   193   1       7.174999999999998                   40.18      44.484999999999992
   194   1       7.174999999999998      41.614999999999995       43.04999999999999
   195   1      5.7399999999999949                   40.18      45.919999999999987
   196   1      5.7399999999999949      41.614999999999995       47.35499999999999
   197   1       7.174999999999998                   40.18       47.35499999999999
   198   1       7.174999999999998      41.614999999999995      45.919999999999987
   199   1      5.7399999999999949                   40.18      48.789999999999992
   200   1       7.174999999999998                   40.18      50.225000000000001
   201   1       7.174999999999998      41.614999999999995      48.789999999999992
   202   1       7.174999999999998       43.04999999999999      30.134999999999991
   203   1      5.7399999999999949       43.04999999999999      31.569999999999997
   204   1      5.7399999999999949      44.484999999999992      33.004999999999995
   205   1       7.174999999999998       43.04999999999999      33.004999999999995
   206   1       7.174999999999998      44.484999999999992      31.569999999999997
   207   1      5.7399999999999949       43.04999999999999      34.439999999999991
   208   1      5.7399999999999949      44.484999999999992      35.874999999999993
   209   1       7.174999999999998       43.04999999999999      35.874999999999993
   210   1       7.174999999999998      44.484999999999992      34.439999999999991
   211   1      5.7399999999999949       43.04999999999999      37.309999999999988
   212   1      5.7399999999999949      44.484999999999992       38.74499999999999
   213   1       7.174999999999998       43.04999999999999       38.74499999999999
   214   1       7.174999999999998      44.484999999999992      37.309999999999988
   215   1      5.7399999999999949       43.04999999999999                   40.18
   216   1      5.7399999999999949      44.484999999999992      41.614999999999995
   217   1       7.174999999999998       43.04999999999999      41.614999999999995
   218   1       7.174999999999998      44.484999999999992                   40.18
   219   1      5.7399999999999949       43.04999999999999       43.04999999999999
   220   1      5.7399999999999949      44.484999999999992      44.484999999999992
   221   1       7.174999999999998       43.04999999999999      44.484999999999992
   222   1       7.174999999999998      44.484999999999992       43.04999999999999
   223   1      5.7399999999999949       43.04999999999999      45.919999999999987
   224   1      5.7399999999999949      44.484999999999992       47.35499999999999
   225   1       7.174999999999998       43.04999999999999       47.35499999999999
   226   1       7.174999999999998      44.484999999999992      45.919999999999987
   227   1      5.7399999999999949       43.04999999999999      48.789999999999992
   228   1       7.174999999999998       43.04999999999999      50.225000000000001
   229   1       7.174999999999998      44.484999999999992      48.789999999999992
   230   1       7.174999999999998      45.919999999999987      30.134999999999991
   231   1      5.7399999999999949      45.919999999999987      31.569999999999997
   232   1      5.7399999999999949       47.35499999999999      33.004999999999995
   233   1       7.174999999999998      45.919999999999987      33.004999999999995
   234   1       7.174999999999998       47.35499999999999      31.569999999999997
   235   1      5.7399999999999949      45.919999999999987      34.439999999999991
   236   1      5.7399999999999949       47.35499999999999      35.874999999999993
   237   1       7.174999999999998      45.919999999999987      35.874999999999993
   238   1       7.174999999999998       47.35499999999999      34.439999999999991
   239   1      5.7399999999999949      45.919999999999987      37.309999999999988
   240   1      5.7399999999999949       47.35499999999999       38.74499999999999
   241   1       7.174999999999998      45.919999999999987       38.74499999999999
   242   1       7.174999999999998       47.35499999999999      37.309999999999988
   243   1      5.7399999999999949      45.919999999999987                   40.18
   244   1      5.7399999999999949       47.35499999999999      41.614999999999995
   245   1       7.174999999999998      45.919999999999987      41.614999999999995
   246   1       7.174999999999998       47.35499999999999                   40.18
   247   1      5.7399999999999949      45.919999999999987       43.04999999999999
   248   1      5.7399999999999949       47.35499999999999      44.484999999999992
   249   1       7.174999999999998      45.919999999999987      44.484999999999992
   250   1       7.174999999999998       47.35499999999999       43.04999999999999
   251   1      5.7399999999999949      45.919999999999987      45.919999999999987
   252   1      5.7399999999999949       47.35499999999999       47.35499999999999
   253   1       7.174999999999998      45.919999999999987       47.35499999999999
   254   1       7.174999999999998       47.35499999999999      45.919999999999987
   255   1      5.7399999999999949      45.919999999999987      48.789999999999992
   256   1       7.174999999999998      45.919999999999987      50.225000000000001
   257   1       7.174999999999998       47.35499999999999      48.789999999999992
   258   1       7.174999999999998      48.789999999999992      30.134999999999991
   259   1      5.7399999999999949      48.789999999999992      31.569999999999997
   260   1       7.174999999999998      48.789999999999992      33.004999999999995
   261   1       7.174999999999998      50.225000000000001      31.569999999999997
   262   1      5.7399999999999949      48.789999999999992      34.439999999999991
   263   1       7.174999999999998      48.789999999999992      35.874999999999993
   264   1       7.174999999999998      50.225000000000001      34.439999999999991
   265   1      5.7399999999999949      48.789999999999992      37.309999999999988
   266   1       7.174999999999998      48.789999999999992       38.74499999999999
   267   1       7.174999999999998      50.225000000000001      37.309999999999988
   268   1      5.7399999999999949      48.789999999999992                   40.18
   269   1       7.174999999999998      48.789999999999992      41.614999999999995
   270   1       7.174999999999998      50.225000000000001                   40.18
   271   1      5.7399999999999949      48.789999999999992       43.04999999999999
   272   1       7.174999999999998      48.789999999999992      44.484999999999992
   273   1       7.174999999999998      50.225000000000001       43.04999999999999
   274   1      5.7399999999999949      48.789999999999992      45.919999999999987
   275   1       7.174999999999998      48.789999999999992       47.35499999999999
   276   1       7.174999999999998      50.225000000000001      45.919999999999987
   277   1      5.7399999999999949      48.789999999999992      48.789999999999992
   278   1       7.174999999999998      48.789999999999992      50.225000000000001
   279   1       7.174999999999998      50.225000000000001      48.789999999999992
   280   1      10.044999999999995      27.264999999999993      28.699999999999992
   281   1      10.044999999999995      27.264999999999993      31.569999999999997
   282   1      10.044999999999995      27.264999999999993      34.439999999999991
   283   1      10.044999999999995      27.264999999999993      37.309999999999988
   284   1      10.044999999999995      27.264999999999993                   40.18
   285   1      10.044999999999995      27.264999999999993       43.04999999999999
   286   1      10.044999999999995      27.264999999999993      45.919999999999987
   287   1      10.044999999999995      27.264999999999993      48.789999999999992
   288   1      10.044999999999995      27.264999999999993      51.659999999999997
   289   1      10.044999999999995      28.699999999999992      27.264999999999993
   290   1      8.6099999999999923      28.699999999999992      28.699999999999992
   291   1      8.6099999999999923      30.134999999999991      30.134999999999991
   292   1      10.044999999999995      28.699999999999992      30.134999999999991
   293   1      10.044999999999995      30.134999999999991      28.699999999999992
   294   1      8.6099999999999923      28.699999999999992      31.569999999999997
   295   1      8.6099999999999923      30.134999999999991      33.004999999999995
   296   1      10.044999999999995      28.699999999999992      33.004999999999995
   297   1      10.044999999999995      30.134999999999991      31.569999999999997
   298   1      8.6099999999999923      28.699999999999992      34.439999999999991
   299   1      8.6099999999999923      30.134999999999991      35.874999999999993
   300   1      10.044999999999995      28.699999999999992      35.874999999999993
   301   1      10.044999999999995      30.134999999999991      34.439999999999991
   302   1      8.6099999999999923      28.699999999999992      37.309999999999988
   303   1      8.6099999999999923      30.134999999999991       38.74499999999999
   304   1      10.044999999999995      28.699999999999992       38.74499999999999
   305   1      10.044999999999995      30.134999999999991      37.309999999999988
   306   1      8.6099999999999923      28.699999999999992                   40.18
   307   1      8.6099999999999923      30.134999999999991      41.614999999999995
   308   1      10.044999999999995      28.699999999999992      41.614999999999995
   309   1      10.044999999999995      30.134999999999991                   40.18
   310   1      8.6099999999999923      28.699999999999992       43.04999999999999
   311   1      8.6099999999999923      30.134999999999991      44.484999999999992
   312   1      10.044999999999995      28.699999999999992      44.484999999999992
   313   1      10.044999999999995      30.134999999999991       43.04999999999999
   314   1      8.6099999999999923      28.699999999999992      45.919999999999987
   315   1      8.6099999999999923      30.134999999999991       47.35499999999999
   316   1      10.044999999999995      28.699999999999992       47.35499999999999
   317   1      10.044999999999995      30.134999999999991      45.919999999999987
   318   1      8.6099999999999923      28.699999999999992      48.789999999999992
   319   1      8.6099999999999923      30.134999999999991      50.225000000000001
   320   1      10.044999999999995      28.699999999999992      50.225000000000001
   321   1      10.044999999999995      30.134999999999991      48.789999999999992
   322   1      8.6099999999999923      28.699999999999992      51.659999999999997
   323   1      10.044999999999995      28.699999999999992      53.094999999999999
   324   1      10.044999999999995      30.134999999999991      51.659999999999997
   325   1      10.044999999999995      31.569999999999997      27.264999999999993
   326   1      8.6099999999999923      31.569999999999997      28.699999999999992
   327   1      8.6099999999999923      33.004999999999995      30.134999999999991
   328   1      10.044999999999995      31.569999999999997      30.134999999999991
   329   1      10.044999999999995      33.004999999999995      28.699999999999992
   330   1      8.6099999999999923      31.569999999999997      31.569999999999997
   331   1      8.6099999999999923      33.004999999999995      33.004999999999995
   332   1      10.044999999999995      31.569999999999997      33.004999999999995
   333   1      10.044999999999995      33.004999999999995      31.569999999999997
   334   1      8.6099999999999923      31.569999999999997      34.439999999999991
   335   1      8.6099999999999923      33.004999999999995      35.874999999999993
   336   1      10.044999999999995      31.569999999999997      35.874999999999993
   337   1      10.044999999999995      33.004999999999995      34.439999999999991
   338   1      8.6099999999999923      31.569999999999997      37.309999999999988
   339   1      8.6099999999999923      33.004999999999995       38.74499999999999
   340   1      10.044999999999995      31.569999999999997       38.74499999999999
   341   1      10.044999999999995      33.004999999999995      37.309999999999988
   342   1      8.6099999999999923      31.569999999999997                   40.18
   343   1      8.6099999999999923      33.004999999999995      41.614999999999995
   344   1      10.044999999999995      31.569999999999997      41.614999999999995
   345   1      10.044999999999995      33.004999999999995                   40.18
   346   1      8.6099999999999923      31.569999999999997       43.04999999999999
   347   1      8.6099999999999923      33.004999999999995      44.484999999999992
   348   1      10.044999999999995      31.569999999999997      44.484999999999992
   349   1      10.044999999999995      33.004999999999995       43.04999999999999
   350   1      8.6099999999999923      31.569999999999997      45.919999999999987
   351   1      8.6099999999999923      33.004999999999995       47.35499999999999
   352   1      10.044999999999995      31.569999999999997       47.35499999999999
   353   1      10.044999999999995      33.004999999999995      45.919999999999987
   354   1      8.6099999999999923      31.569999999999997      48.789999999999992
   355   1      8.6099999999999923      33.004999999999995      50.225000000000001
   356   1      10.044999999999995      31.569999999999997      50.225000000000001
   357   1      10.044999999999995      33.004999999999995      48.789999999999992
   358   1      8.6099999999999923      31.569999999999997      51.659999999999997