model_files/NiCoCrFeMn/NiCoCrFeMn_30000/NiCoCrFeMn_221/NiCoCrFeMn_221_fcc_29329_temp.data (written by ASE) 

29329 	 atoms 
5  atom types
0.0                     117  xlo xhi
0.0                     117  ylo yhi
0.0                     117  zlo zhi


Atoms 

     1   1      1.7974999999999997      55.722500000000011       57.52000000000001
     2   1      1.7974999999999997       57.52000000000001      55.722500000000011
     3   1                       0       57.52000000000001       57.52000000000001
     4   1      1.7974999999999997       57.52000000000001      59.317500000000003
     5   1      1.7974999999999997      59.317500000000003       57.52000000000001
     6   1      5.3925000000000054      52.127500000000005      53.925000000000011
     7   1      5.3925000000000054      52.127500000000005       57.52000000000001
     8   1      5.3925000000000054      52.127500000000005      61.115000000000016
     9   1      5.3925000000000054      53.925000000000011      52.127500000000005
    10   1      3.5949999999999993      53.925000000000011      53.925000000000011
    11   1      3.5949999999999993      55.722500000000011      55.722500000000011
    12   1      5.3925000000000054      53.925000000000011      55.722500000000011
    13   1      5.3925000000000054      55.722500000000011      53.925000000000011
    14   1      3.5949999999999993      53.925000000000011       57.52000000000001
    15   1      3.5949999999999993      55.722500000000011      59.317500000000003
    16   1      5.3925000000000054      53.925000000000011      59.317500000000003
    17   1      5.3925000000000054      55.722500000000011       57.52000000000001
    18   1      3.5949999999999993      53.925000000000011      61.115000000000016
    19   1      5.3925000000000054      53.925000000000011      62.912500000000009
    20   1      5.3925000000000054      55.722500000000011      61.115000000000016
    21   1      5.3925000000000054       57.52000000000001      52.127500000000005
    22   1      3.5949999999999993       57.52000000000001      53.925000000000011
    23   1      3.5949999999999993      59.317500000000003      55.722500000000011
    24   1      5.3925000000000054       57.52000000000001      55.722500000000011
    25   1      5.3925000000000054      59.317500000000003      53.925000000000011
    26   1      3.5949999999999993       57.52000000000001       57.52000000000001
    27   1      3.5949999999999993      59.317500000000003      59.317500000000003
    28   1      5.3925000000000054       57.52000000000001      59.317500000000003
    29   1      5.3925000000000054      59.317500000000003       57.52000000000001
    30   1      3.5949999999999993       57.52000000000001      61.115000000000016
    31   1      5.3925000000000054       57.52000000000001      62.912500000000009
    32   1      5.3925000000000054      59.317500000000003      61.115000000000016
    33   1      5.3925000000000054      61.115000000000016      52.127500000000005
    34   1      3.5949999999999993      61.115000000000016      53.925000000000011
    35   1      5.3925000000000054      61.115000000000016      55.722500000000011
    36   1      5.3925000000000054      62.912500000000009      53.925000000000011
    37   1      3.5949999999999993      61.115000000000016       57.52000000000001
    38   1      5.3925000000000054      61.115000000000016      59.317500000000003
    39   1      5.3925000000000054      62.912500000000009       57.52000000000001
    40   1      3.5949999999999993      61.115000000000016      61.115000000000016
    41   1      5.3925000000000054      61.115000000000016      62.912500000000009
    42   1      5.3925000000000054      62.912500000000009      61.115000000000016
    43   1       8.987500000000006      48.532500000000006      53.925000000000011
    44   1       8.987500000000006      48.532500000000006       57.52000000000001
    45   1       8.987500000000006      48.532500000000006      61.115000000000016
    46   1      7.1900000000000057      52.127500000000005      52.127500000000005
    47   1       8.987500000000006      50.330000000000013      52.127500000000005
    48   1       8.987500000000006      52.127500000000005      50.330000000000013
    49   1      7.1900000000000057      50.330000000000013      53.925000000000011
    50   1      7.1900000000000057      52.127500000000005      55.722500000000011
    51   1       8.987500000000006      50.330000000000013      55.722500000000011
    52   1       8.987500000000006      52.127500000000005      53.925000000000011
    53   1      7.1900000000000057      50.330000000000013       57.52000000000001
    54   1      7.1900000000000057      52.127500000000005      59.317500000000003
    55   1       8.987500000000006      50.330000000000013      59.317500000000003
    56   1       8.987500000000006      52.127500000000005       57.52000000000001
    57   1      7.1900000000000057      50.330000000000013      61.115000000000016
    58   1      7.1900000000000057      52.127500000000005      62.912500000000009
    59   1       8.987500000000006      50.330000000000013      62.912500000000009
    60   1       8.987500000000006      52.127500000000005      61.115000000000016
    61   1       8.987500000000006      52.127500000000005      64.710000000000022
    62   1       8.987500000000006      53.925000000000011      48.532500000000006
    63   1      7.1900000000000057      53.925000000000011      50.330000000000013
    64   1      7.1900000000000057      55.722500000000011      52.127500000000005
    65   1       8.987500000000006      53.925000000000011      52.127500000000005
    66   1       8.987500000000006      55.722500000000011      50.330000000000013
    67   1      7.1900000000000057      53.925000000000011      53.925000000000011
    68   1      7.1900000000000057      55.722500000000011      55.722500000000011
    69   1       8.987500000000006      53.925000000000011      55.722500000000011
    70   1       8.987500000000006      55.722500000000011      53.925000000000011
    71   1      7.1900000000000057      53.925000000000011       57.52000000000001
    72   1      7.1900000000000057      55.722500000000011      59.317500000000003
    73   1       8.987500000000006      53.925000000000011      59.317500000000003
    74   1       8.987500000000006      55.722500000000011       57.52000000000001
    75   1      7.1900000000000057      53.925000000000011      61.115000000000016
    76   1      7.1900000000000057      55.722500000000011      62.912500000000009
    77   1       8.987500000000006      53.925000000000011      62.912500000000009
    78   1       8.987500000000006      55.722500000000011      61.115000000000016
    79   1      7.1900000000000057      53.925000000000011      64.710000000000022
    80   1       8.987500000000006      53.925000000000011      66.507500000000022
    81   1       8.987500000000006      55.722500000000011      64.710000000000022
    82   1       8.987500000000006       57.52000000000001      48.532500000000006
    83   1      7.1900000000000057       57.52000000000001      50.330000000000013
    84   1      7.1900000000000057      59.317500000000003      52.127500000000005
    85   1       8.987500000000006       57.52000000000001      52.127500000000005
    86   1       8.987500000000006      59.317500000000003      50.330000000000013
    87   1      7.1900000000000057       57.52000000000001      53.925000000000011
    88   1      7.1900000000000057      59.317500000000003      55.722500000000011
    89   1       8.987500000000006       57.52000000000001      55.722500000000011
    90   1       8.987500000000006      59.317500000000003      53.925000000000011
    91   1      7.1900000000000057       57.52000000000001       57.52000000000001
    92   1      7.1900000000000057      59.317500000000003      59.317500000000003
    93   1       8.987500000000006       57.52000000000001      59.317500000000003
    94   1       8.987500000000006      59.317500000000003       57.52000000000001
    95   1      7.1900000000000057       57.52000000000001      61.115000000000016
    96   1      7.1900000000000057      59.317500000000003      62.912500000000009
    97   1       8.987500000000006       57.52000000000001      62.912500000000009
    98   1       8.987500000000006      59.317500000000003      61.115000000000016
    99   1      7.1900000000000057       57.52000000000001      64.710000000000022
   100   1       8.987500000000006       57.52000000000001      66.507500000000022
   101   1       8.987500000000006      59.317500000000003      64.710000000000022
   102   1       8.987500000000006      61.115000000000016      48.532500000000006
   103   1      7.1900000000000057      61.115000000000016      50.330000000000013
   104   1      7.1900000000000057      62.912500000000009      52.127500000000005
   105   1       8.987500000000006      61.115000000000016      52.127500000000005
   106   1       8.987500000000006      62.912500000000009      50.330000000000013
   107   1      7.1900000000000057      61.115000000000016      53.925000000000011
   108   1      7.1900000000000057      62.912500000000009      55.722500000000011
   109   1       8.987500000000006      61.115000000000016      55.722500000000011
   110   1       8.987500000000006      62.912500000000009      53.925000000000011
   111   1      7.1900000000000057      61.115000000000016       57.52000000000001
   112   1      7.1900000000000057      62.912500000000009      59.317500000000003
   113   1       8.987500000000006      61.115000000000016      59.317500000000003
   114   1       8.987500000000006      62.912500000000009       57.52000000000001
   115   1      7.1900000000000057      61.115000000000016      61.115000000000016
   116   1      7.1900000000000057      62.912500000000009      62.912500000000009
   117   1       8.987500000000006      61.115000000000016      62.912500000000009
   118   1       8.987500000000006      62.912500000000009      61.115000000000016
   119   1      7.1900000000000057      61.115000000000016      64.710000000000022
   120   1       8.987500000000006      61.115000000000016      66.507500000000022
   121   1       8.987500000000006      62.912500000000009      64.710000000000022
   122   1       8.987500000000006      64.710000000000022      52.127500000000005
   123   1      7.1900000000000057      64.710000000000022      53.925000000000011
   124   1       8.987500000000006      64.710000000000022      55.722500000000011
   125   1       8.987500000000006      66.507500000000022      53.925000000000011
   126   1      7.1900000000000057      64.710000000000022       57.52000000000001
   127   1       8.987500000000006      64.710000000000022      59.317500000000003
   128   1       8.987500000000006      66.507500000000022       57.52000000000001
   129   1      7.1900000000000057      64.710000000000022      61.115000000000016
   130   1       8.987500000000006      64.710000000000022      62.912500000000009
   131   1       8.987500000000006      66.507500000000022      61.115000000000016
   132   1      12.582500000000005                 44.9375      53.925000000000011
   133   1      12.582500000000005                 44.9375       57.52000000000001
   134   1      12.582500000000005                 44.9375      61.115000000000016
   135   1      10.785000000000005      48.532500000000006      52.127500000000005
   136   1      12.582500000000005      46.735000000000014      52.127500000000005
   137   1      12.582500000000005      48.532500000000006      50.330000000000013
   138   1      10.785000000000005      46.735000000000014      53.925000000000011
   139   1      10.785000000000005      48.532500000000006      55.722500000000011
   140   1      12.582500000000005      46.735000000000014      55.722500000000011
   141   1      12.582500000000005      48.532500000000006      53.925000000000011
   142   1      10.785000000000005      46.735000000000014       57.52000000000001
   143   1      10.785000000000005      48.532500000000006      59.317500000000003
   144   1      12.582500000000005      46.735000000000014      59.317500000000003
   145   1      12.582500000000005      48.532500000000006       57.52000000000001
   146   1      10.785000000000005      46.735000000000014      61.115000000000016
   147   1      10.785000000000005      48.532500000000006      62.912500000000009
   148   1      12.582500000000005      46.735000000000014      62.912500000000009
   149   1      12.582500000000005      48.532500000000006      61.115000000000016
   150   1      12.582500000000005      48.532500000000006      64.710000000000022
   151   1      10.785000000000005      52.127500000000005      48.532500000000006
   152   1      12.582500000000005      50.330000000000013      48.532500000000006
   153   1      12.582500000000005      52.127500000000005      46.735000000000014
   154   1      10.785000000000005      50.330000000000013      50.330000000000013
   155   1      10.785000000000005      52.127500000000005      52.127500000000005
   156   1      12.582500000000005      50.330000000000013      52.127500000000005
   157   1      12.582500000000005      52.127500000000005      50.330000000000013
   158   1      10.785000000000005      50.330000000000013      53.925000000000011
   159   1      10.785000000000005      52.127500000000005      55.722500000000011
   160   1      12.582500000000005      50.330000000000013      55.722500000000011
   161   1      12.582500000000005      52.127500000000005      53.925000000000011
   162   1      10.785000000000005      50.330000000000013       57.52000000000001
   163   1      10.785000000000005      52.127500000000005      59.317500000000003
   164   1      12.582500000000005      50.330000000000013      59.317500000000003
   165   1      12.582500000000005      52.127500000000005       57.52000000000001
   166   1      10.785000000000005      50.330000000000013      61.115000000000016
   167   1      10.785000000000005      52.127500000000005      62.912500000000009
   168   1      12.582500000000005      50.330000000000013      62.912500000000009
   169   1      12.582500000000005      52.127500000000005      61.115000000000016
   170   1      10.785000000000005      50.330000000000013      64.710000000000022
   171   1      10.785000000000005      52.127500000000005      66.507500000000022
   172   1      12.582500000000005      50.330000000000013      66.507500000000022
   173   1      12.582500000000005      52.127500000000005      64.710000000000022
   174   1      12.582500000000005      52.127500000000005      68.305000000000007
   175   1      12.582500000000005      53.925000000000011                 44.9375
   176   1      10.785000000000005      53.925000000000011      46.735000000000014
   177   1      10.785000000000005      55.722500000000011      48.532500000000006
   178   1      12.582500000000005      53.925000000000011      48.532500000000006
   179   1      12.582500000000005      55.722500000000011      46.735000000000014
   180   1      10.785000000000005      53.925000000000011      50.330000000000013
   181   1      10.785000000000005      55.722500000000011      52.127500000000005
   182   1      12.582500000000005      53.925000000000011      52.127500000000005
   183   1      12.582500000000005      55.722500000000011      50.330000000000013
   184   1      10.785000000000005      53.925000000000011      53.925000000000011
   185   1      10.785000000000005      55.722500000000011      55.722500000000011
   186   1      12.582500000000005      53.925000000000011      55.722500000000011
   187   1      12.582500000000005      55.722500000000011      53.925000000000011
   188   1      10.785000000000005      53.925000000000011       57.52000000000001
   189   1      10.785000000000005      55.722500000000011      59.317500000000003
   190   1      12.582500000000005      53.925000000000011      59.317500000000003
   191   1      12.582500000000005      55.722500000000011       57.52000000000001
   192   1      10.785000000000005      53.925000000000011      61.115000000000016
   193   1      10.785000000000005      55.722500000000011      62.912500000000009
   194   1      12.582500000000005      53.925000000000011      62.912500000000009
   195   1      12.582500000000005      55.722500000000011      61.115000000000016
   196   1      10.785000000000005      53.925000000000011      64.710000000000022
   197   1      10.785000000000005      55.722500000000011      66.507500000000022
   198   1      12.582500000000005      53.925000000000011      66.507500000000022
   199   1      12.582500000000005      55.722500000000011      64.710000000000022
   200   1      10.785000000000005      53.925000000000011      68.305000000000007
   201   1      12.582500000000005      53.925000000000011      70.102500000000006
   202   1      12.582500000000005      55.722500000000011      68.305000000000007
   203   1      12.582500000000005       57.52000000000001                 44.9375
   204   1      10.785000000000005       57.52000000000001      46.735000000000014
   205   1      10.785000000000005      59.317500000000003      48.532500000000006
   206   1      12.582500000000005       57.52000000000001      48.532500000000006
   207   1      12.582500000000005      59.317500000000003      46.735000000000014
   208   1      10.785000000000005       57.52000000000001      50.330000000000013
   209   1      10.785000000000005      59.317500000000003      52.127500000000005
   210   1      12.582500000000005       57.52000000000001      52.127500000000005
   211   1      12.582500000000005      59.317500000000003      50.330000000000013
   212   1      10.785000000000005       57.52000000000001      53.925000000000011
   213   1      10.785000000000005      59.317500000000003      55.722500000000011
   214   1      12.582500000000005       57.52000000000001      55.722500000000011
   215   1      12.582500000000005      59.317500000000003      53.925000000000011
   216   1      10.785000000000005       57.52000000000001       57.52000000000001
   217   1      10.785000000000005      59.317500000000003      59.317500000000003
   218   1      12.582500000000005       57.52000000000001      59.317500000000003
   219   1      12.582500000000005      59.317500000000003       57.52000000000001
   220   1      10.785000000000005       57.52000000000001      61.115000000000016
   221   1      10.785000000000005      59.317500000000003      62.912500000000009
   222   1      12.582500000000005       57.52000000000001      62.912500000000009
   223   1      12.582500000000005      59.317500000000003      61.115000000000016
   224   1      10.785000000000005       57.52000000000001      64.710000000000022
   225   1      10.785000000000005      59.317500000000003      66.507500000000022
   226   1      12.582500000000005       57.52000000000001      66.507500000000022
   227   1      12.582500000000005      59.317500000000003      64.710000000000022
   228   1      10.785000000000005       57.52000000000001      68.305000000000007
   229   1      12.582500000000005       57.52000000000001      70.102500000000006
   230   1      12.582500000000005      59.317500000000003      68.305000000000007
   231   1      12.582500000000005      61.115000000000016                 44.9375
   232   1      10.785000000000005      61.115000000000016      46.735000000000014
   233   1      10.785000000000005      62.912500000000009      48.532500000000006
   234   1      12.582500000000005      61.115000000000016      48.532500000000006
   235   1      12.582500000000005      62.912500000000009      46.735000000000014
   236   1      10.785000000000005      61.115000000000016      50.330000000000013
   237   1      10.785000000000005      62.912500000000009      52.127500000000005
   238   1      12.582500000000005      61.115000000000016      52.127500000000005
   239   1      12.582500000000005      62.912500000000009      50.330000000000013
   240   1      10.785000000000005      61.115000000000016      53.925000000000011
   241   1      10.785000000000005      62.912500000000009      55.722500000000011
   242   1      12.582500000000005      61.115000000000016      55.722500000000011
   243   1      12.582500000000005      62.912500000000009      53.925000000000011
   244   1      10.785000000000005      61.115000000000016       57.52000000000001
   245   1      10.785000000000005      62.912500000000009      59.317500000000003
   246   1      12.582500000000005      61.115000000000016      59.317500000000003
   247   1      12.582500000000005      62.912500000000009       57.52000000000001
   248   1      10.785000000000005      61.115000000000016      61.115000000000016
   249   1      10.785000000000005      62.912500000000009      62.912500000000009
   250   1      12.582500000000005      61.115000000000016      62.912500000000009
   251   1      12.582500000000005      62.912500000000009      61.115000000000016
   252   1      10.785000000000005      61.115000000000016      64.710000000000022
   253   1      10.785000000000005      62.912500000000009      66.507500000000022
   254   1      12.582500000000005      61.115000000000016      66.507500000000022
   255   1      12.582500000000005      62.912500000000009      64.710000000000022
   256   1      10.785000000000005      61.115000000000016      68.305000000000007
   257   1      12.582500000000005      61.115000000000016      70.102500000000006
   258   1      12.582500000000005      62.912500000000009      68.305000000000007
   259   1      12.582500000000005      64.710000000000022      48.532500000000006
   260   1      10.785000000000005      64.710000000000022      50.330000000000013
   261   1      10.785000000000005      66.507500000000022      52.127500000000005
   262   1      12.582500000000005      64.710000000000022      52.127500000000005
   263   1      12.582500000000005      66.507500000000022      50.330000000000013
   264   1      10.785000000000005      64.710000000000022      53.925000000000011
   265   1      10.785000000000005      66.507500000000022      55.722500000000011
   266   1      12.582500000000005      64.710000000000022      55.722500000000011
   267   1      12.582500000000005      66.507500000000022      53.925000000000011
   268   1      10.785000000000005      64.710000000000022       57.52000000000001
   269   1      10.785000000000005      66.507500000000022      59.317500000000003
   270   1      12.582500000000005      64.710000000000022      59.317500000000003
   271   1      12.582500000000005      66.507500000000022       57.52000000000001
   272   1      10.785000000000005      64.710000000000022      61.115000000000016
   273   1      10.785000000000005      66.507500000000022      62.912500000000009
   274   1      12.582500000000005      64.710000000000022      62.912500000000009
   275   1      12.582500000000005      66.507500000000022      61.115000000000016
   276   1      10.785000000000005      64.710000000000022      64.710000000000022
   277   1      12.582500000000005      64.710000000000022      66.507500000000022
   278   1      12.582500000000005      66.507500000000022      64.710000000000022
   279   1      12.582500000000005      68.305000000000007      52.127500000000005
   280   1      10.785000000000005      68.305000000000007      53.925000000000011
   281   1      12.582500000000005      68.305000000000007      55.722500000000011
   282   1      12.582500000000005      70.102500000000006      53.925000000000011
   283   1      10.785000000000005      68.305000000000007       57.52000000000001
   284   1      12.582500000000005      68.305000000000007      59.317500000000003
   285   1      12.582500000000005      70.102500000000006       57.52000000000001
   286   1      10.785000000000005      68.305000000000007      61.115000000000016
   287   1      12.582500000000005      68.305000000000007      62.912500000000009
   288   1      12.582500000000005      70.102500000000006      61.115000000000016
   289   1      16.177500000000006      41.342500000000001      53.925000000000011
   290   1      16.177500000000006      41.342500000000001       57.52000000000001
   291   1      16.177500000000006      41.342500000000001      61.115000000000016
   292   1      16.177500000000006                 44.9375      46.735000000000014
   293   1      14.380000000000004                 44.9375      52.127500000000005
   294   1      16.177500000000006      43.140000000000008      52.127500000000005
   295   1      16.177500000000006                 44.9375      50.330000000000013
   296   1      14.380000000000004      43.140000000000008      53.925000000000011
   297   1      14.380000000000004                 44.9375      55.722500000000011
   298   1      16.177500000000006      43.140000000000008      55.722500000000011
   299   1      16.177500000000006                 44.9375      53.925000000000011
   300   1      14.380000000000004      43.140000000000008       57.52000000000001
   301   1      14.380000000000004                 44.9375      59.317500000000003
   302   1      16.177500000000006      43.140000000000008      59.317500000000003
   303   1      16.177500000000006                 44.9375       57.52000000000001
   304   1      14.380000000000004      43.140000000000008      61.115000000000016
   305   1      14.380000000000004                 44.9375      62.912500000000009
   306   1      16.177500000000006      43.140000000000008      62.912500000000009
   307   1      16.177500000000006                 44.9375      61.115000000000016
   308   1      16.177500000000006                 44.9375      64.710000000000022
   309   1      16.177500000000006                 44.9375      68.305000000000007
   310   1      16.177500000000006      46.735000000000014                 44.9375
   311   1      14.380000000000004      46.735000000000014      46.735000000000014
   312   1      14.380000000000004      48.532500000000006      48.532500000000006
   313   1      16.177500000000006      46.735000000000014      48.532500000000006
   314   1      16.177500000000006      48.532500000000006      46.735000000000014
   315   1      14.380000000000004      46.735000000000014      50.330000000000013
   316   1      14.380000000000004      48.532500000000006      52.127500000000005
   317   1      16.177500000000006      46.735000000000014      52.127500000000005
   318   1      16.177500000000006      48.532500000000006      50.330000000000013
   319   1      14.380000000000004      46.735000000000014      53.925000000000011
   320   1      14.380000000000004      48.532500000000006      55.722500000000011
   321   1      16.177500000000006      46.735000000000014      55.722500000000011
   322   1      16.177500000000006      48.532500000000006      53.925000000000011
   323   1      14.380000000000004      46.735000000000014       57.52000000000001
   324   1      14.380000000000004      48.532500000000006      59.317500000000003
   325   1      16.177500000000006      46.735000000000014      59.317500000000003
   326   1      16.177500000000006      48.532500000000006       57.52000000000001
   327   1      14.380000000000004      46.735000000000014      61.115000000000016
   328   1      14.380000000000004      48.532500000000006      62.912500000000009
   329   1      16.177500000000006      46.735000000000014      62.912500000000009
   330   1      16.177500000000006      48.532500000000006      61.115000000000016
   331   1      14.380000000000004      46.735000000000014      64.710000000000022
   332   1      14.380000000000004      48.532500000000006      66.507500000000022
   333   1      16.177500000000006      46.735000000000014      66.507500000000022
   334   1      16.177500000000006      48.532500000000006      64.710000000000022
   335   1      14.380000000000004      46.735000000000014      68.305000000000007
   336   1      16.177500000000006      46.735000000000014      70.102500000000006
   337   1      16.177500000000006      48.532500000000006      68.305000000000007
   338   1      14.380000000000004      52.127500000000005                 44.9375
   339   1      16.177500000000006      50.330000000000013                 44.9375
   340   1      16.177500000000006      52.127500000000005      43.140000000000008
   341   1      14.380000000000004      50.330000000000013      46.735000000000014
   342   1      14.380000000000004      52.127500000000005      48.532500000000006
   343   1      16.177500000000006      50.330000000000013      48.532500000000006
   344   1      16.177500000000006      52.127500000000005      46.735000000000014
   345   1      14.380000000000004      50.330000000000013      50.330000000000013
   346   1      14.380000000000004      52.127500000000005      52.127500000000005
   347   1      16.177500000000006      50.330000000000013      52.127500000000005
   348   1      16.177500000000006      52.127500000000005      50.330000000000013
   349   1      14.380000000000004      50.330000000000013      53.925000000000011
   350   1      14.380000000000004      52.127500000000005      55.722500000000011
   351   1      16.177500000000006      50.330000000000013      55.722500000000011
   352   1      16.177500000000006      52.127500000000005      53.925000000000011
   353   1      14.380000000000004      50.330000000000013       57.52000000000001
   354   1      14.380000000000004      52.127500000000005      59.317500000000003
   355   1      16.177500000000006      50.330000000000013      59.317500000000003
   356   1      16.177500000000006      52.127500000000005       57.52000000000001
   357   1      14.380000000000004      50.330000000000013      61.115000000000016
   358   1      14.380000000000004      52.127500000000005      62.912500000000009