model_files/Pt/Pt_3000/Pt_552/data.Pt_552_fcc_2863 (written by ASE) 

2863 	 atoms 
1  atom types
0.0                      54  xlo xhi
0.0                      54  ylo yhi
0.0                      54  zlo zhi


Atoms 

     1   1      1.9599999999999971      25.479999999999993      27.439999999999998
     2   1      1.9599999999999971      27.439999999999998      25.479999999999993
     3   1                       0      27.439999999999998      27.439999999999998
     4   1      1.9599999999999971      27.439999999999998      29.399999999999999
     5   1      1.9599999999999971      29.399999999999999      27.439999999999998
     6   1       5.879999999999999      21.559999999999995      23.519999999999996
     7   1       5.879999999999999      21.559999999999995      27.439999999999998
     8   1       5.879999999999999      21.559999999999995      31.359999999999996
     9   1       5.879999999999999      23.519999999999996      21.559999999999995
    10   1      3.9199999999999982      23.519999999999996      23.519999999999996
    11   1      3.9199999999999982      25.479999999999993      25.479999999999993
    12   1       5.879999999999999      23.519999999999996      25.479999999999993
    13   1       5.879999999999999      25.479999999999993      23.519999999999996
    14   1      3.9199999999999982      23.519999999999996      27.439999999999998
    15   1      3.9199999999999982      25.479999999999993      29.399999999999999
    16   1       5.879999999999999      23.519999999999996      29.399999999999999
    17   1       5.879999999999999      25.479999999999993      27.439999999999998
    18   1      3.9199999999999982      23.519999999999996      31.359999999999996
    19   1       5.879999999999999      23.519999999999996                   33.32
    20   1       5.879999999999999      25.479999999999993      31.359999999999996
    21   1       5.879999999999999      27.439999999999998      21.559999999999995
    22   1      3.9199999999999982      27.439999999999998      23.519999999999996
    23   1      3.9199999999999982      29.399999999999999      25.479999999999993
    24   1       5.879999999999999      27.439999999999998      25.479999999999993
    25   1       5.879999999999999      29.399999999999999      23.519999999999996
    26   1      3.9199999999999982      27.439999999999998      27.439999999999998
    27   1      3.9199999999999982      29.399999999999999      29.399999999999999
    28   1       5.879999999999999      27.439999999999998      29.399999999999999
    29   1       5.879999999999999      29.399999999999999      27.439999999999998
    30   1      3.9199999999999982      27.439999999999998      31.359999999999996
    31   1       5.879999999999999      27.439999999999998                   33.32
    32   1       5.879999999999999      29.399999999999999      31.359999999999996
    33   1       5.879999999999999      31.359999999999996      21.559999999999995
    34   1      3.9199999999999982      31.359999999999996      23.519999999999996
    35   1       5.879999999999999      31.359999999999996      25.479999999999993
    36   1       5.879999999999999                   33.32      23.519999999999996
    37   1      3.9199999999999982      31.359999999999996      27.439999999999998
    38   1       5.879999999999999      31.359999999999996      29.399999999999999
    39   1       5.879999999999999                   33.32      27.439999999999998
    40   1      3.9199999999999982      31.359999999999996      31.359999999999996
    41   1       5.879999999999999      31.359999999999996                   33.32
    42   1       5.879999999999999                   33.32      31.359999999999996
    43   1      9.7999999999999954      17.640000000000001      23.519999999999996
    44   1      9.7999999999999954      17.640000000000001      27.439999999999998
    45   1      9.7999999999999954      17.640000000000001      31.359999999999996
    46   1      7.8399999999999963      21.559999999999995      21.559999999999995
    47   1      9.7999999999999954      19.599999999999994      21.559999999999995
    48   1      9.7999999999999954      21.559999999999995      19.599999999999994
    49   1      7.8399999999999963      19.599999999999994      23.519999999999996
    50   1      7.8399999999999963      21.559999999999995      25.479999999999993
    51   1      9.7999999999999954      19.599999999999994      25.479999999999993
    52   1      9.7999999999999954      21.559999999999995      23.519999999999996
    53   1      7.8399999999999963      19.599999999999994      27.439999999999998
    54   1      7.8399999999999963      21.559999999999995      29.399999999999999
    55   1      9.7999999999999954      19.599999999999994      29.399999999999999
    56   1      9.7999999999999954      21.559999999999995      27.439999999999998
    57   1      7.8399999999999963      19.599999999999994      31.359999999999996
    58   1      7.8399999999999963      21.559999999999995                   33.32
    59   1      9.7999999999999954      19.599999999999994                   33.32
    60   1      9.7999999999999954      21.559999999999995      31.359999999999996
    61   1      9.7999999999999954      21.559999999999995      35.280000000000001
    62   1      9.7999999999999954      23.519999999999996      17.640000000000001
    63   1      7.8399999999999963      23.519999999999996      19.599999999999994
    64   1      7.8399999999999963      25.479999999999993      21.559999999999995
    65   1      9.7999999999999954      23.519999999999996      21.559999999999995
    66   1      9.7999999999999954      25.479999999999993      19.599999999999994
    67   1      7.8399999999999963      23.519999999999996      23.519999999999996
    68   1      7.8399999999999963      25.479999999999993      25.479999999999993
    69   1      9.7999999999999954      23.519999999999996      25.479999999999993
    70   1      9.7999999999999954      25.479999999999993      23.519999999999996
    71   1      7.8399999999999963      23.519999999999996      27.439999999999998
    72   1      7.8399999999999963      25.479999999999993      29.399999999999999
    73   1      9.7999999999999954      23.519999999999996      29.399999999999999
    74   1      9.7999999999999954      25.479999999999993      27.439999999999998
    75   1      7.8399999999999963      23.519999999999996      31.359999999999996
    76   1      7.8399999999999963      25.479999999999993                   33.32
    77   1      9.7999999999999954      23.519999999999996                   33.32
    78   1      9.7999999999999954      25.479999999999993      31.359999999999996
    79   1      7.8399999999999963      23.519999999999996      35.280000000000001
    80   1      9.7999999999999954      23.519999999999996      37.239999999999995
    81   1      9.7999999999999954      25.479999999999993      35.280000000000001
    82   1      9.7999999999999954      27.439999999999998      17.640000000000001
    83   1      7.8399999999999963      27.439999999999998      19.599999999999994
    84   1      7.8399999999999963      29.399999999999999      21.559999999999995
    85   1      9.7999999999999954      27.439999999999998      21.559999999999995
    86   1      9.7999999999999954      29.399999999999999      19.599999999999994
    87   1      7.8399999999999963      27.439999999999998      23.519999999999996
    88   1      7.8399999999999963      29.399999999999999      25.479999999999993
    89   1      9.7999999999999954      27.439999999999998      25.479999999999993
    90   1      9.7999999999999954      29.399999999999999      23.519999999999996
    91   1      7.8399999999999963      27.439999999999998      27.439999999999998
    92   1      7.8399999999999963      29.399999999999999      29.399999999999999
    93   1      9.7999999999999954      27.439999999999998      29.399999999999999
    94   1      9.7999999999999954      29.399999999999999      27.439999999999998
    95   1      7.8399999999999963      27.439999999999998      31.359999999999996
    96   1      7.8399999999999963      29.399999999999999                   33.32
    97   1      9.7999999999999954      27.439999999999998                   33.32
    98   1      9.7999999999999954      29.399999999999999      31.359999999999996
    99   1      7.8399999999999963      27.439999999999998      35.280000000000001
   100   1      9.7999999999999954      27.439999999999998      37.239999999999995
   101   1      9.7999999999999954      29.399999999999999      35.280000000000001
   102   1      9.7999999999999954      31.359999999999996      17.640000000000001
   103   1      7.8399999999999963      31.359999999999996      19.599999999999994
   104   1      7.8399999999999963                   33.32      21.559999999999995
   105   1      9.7999999999999954      31.359999999999996      21.559999999999995
   106   1      9.7999999999999954                   33.32      19.599999999999994
   107   1      7.8399999999999963      31.359999999999996      23.519999999999996
   108   1      7.8399999999999963                   33.32      25.479999999999993
   109   1      9.7999999999999954      31.359999999999996      25.479999999999993
   110   1      9.7999999999999954                   33.32      23.519999999999996
   111   1      7.8399999999999963      31.359999999999996      27.439999999999998
   112   1      7.8399999999999963                   33.32      29.399999999999999
   113   1      9.7999999999999954      31.359999999999996      29.399999999999999
   114   1      9.7999999999999954                   33.32      27.439999999999998
   115   1      7.8399999999999963      31.359999999999996      31.359999999999996
   116   1      7.8399999999999963                   33.32                   33.32
   117   1      9.7999999999999954      31.359999999999996                   33.32
   118   1      9.7999999999999954                   33.32      31.359999999999996
   119   1      7.8399999999999963      31.359999999999996      35.280000000000001
   120   1      9.7999999999999954      31.359999999999996      37.239999999999995
   121   1      9.7999999999999954                   33.32      35.280000000000001
   122   1      9.7999999999999954      35.280000000000001      21.559999999999995
   123   1      7.8399999999999963      35.280000000000001      23.519999999999996
   124   1      9.7999999999999954      35.280000000000001      25.479999999999993
   125   1      9.7999999999999954      37.239999999999995      23.519999999999996
   126   1      7.8399999999999963      35.280000000000001      27.439999999999998
   127   1      9.7999999999999954      35.280000000000001      29.399999999999999
   128   1      9.7999999999999954      37.239999999999995      27.439999999999998
   129   1      7.8399999999999963      35.280000000000001      31.359999999999996
   130   1      9.7999999999999954      35.280000000000001                   33.32
   131   1      9.7999999999999954      37.239999999999995      31.359999999999996
   132   1      13.719999999999999      13.719999999999999      23.519999999999996
   133   1      13.719999999999999      13.719999999999999      27.439999999999998
   134   1      13.719999999999999      13.719999999999999      31.359999999999996
   135   1      11.759999999999998      17.640000000000001      17.640000000000001
   136   1      13.719999999999999      15.679999999999998      17.640000000000001
   137   1      13.719999999999999      17.640000000000001      15.679999999999998
   138   1      11.759999999999998      17.640000000000001      21.559999999999995
   139   1      13.719999999999999      15.679999999999998      21.559999999999995
   140   1      13.719999999999999      17.640000000000001      19.599999999999994
   141   1      11.759999999999998      15.679999999999998      23.519999999999996
   142   1      11.759999999999998      17.640000000000001      25.479999999999993
   143   1      13.719999999999999      15.679999999999998      25.479999999999993
   144   1      13.719999999999999      17.640000000000001      23.519999999999996
   145   1      11.759999999999998      15.679999999999998      27.439999999999998
   146   1      11.759999999999998      17.640000000000001      29.399999999999999
   147   1      13.719999999999999      15.679999999999998      29.399999999999999
   148   1      13.719999999999999      17.640000000000001      27.439999999999998
   149   1      11.759999999999998      15.679999999999998      31.359999999999996
   150   1      11.759999999999998      17.640000000000001                   33.32
   151   1      13.719999999999999      15.679999999999998                   33.32
   152   1      13.719999999999999      17.640000000000001      31.359999999999996
   153   1      11.759999999999998      17.640000000000001      37.239999999999995
   154   1      13.719999999999999      15.679999999999998      37.239999999999995
   155   1      13.719999999999999      17.640000000000001      35.280000000000001
   156   1      13.719999999999999      17.640000000000001      39.199999999999989
   157   1      11.759999999999998      21.559999999999995      17.640000000000001
   158   1      13.719999999999999      19.599999999999994      17.640000000000001
   159   1      13.719999999999999      21.559999999999995      15.679999999999998
   160   1      11.759999999999998      19.599999999999994      19.599999999999994
   161   1      11.759999999999998      21.559999999999995      21.559999999999995
   162   1      13.719999999999999      19.599999999999994      21.559999999999995
   163   1      13.719999999999999      21.559999999999995      19.599999999999994
   164   1      11.759999999999998      19.599999999999994      23.519999999999996
   165   1      11.759999999999998      21.559999999999995      25.479999999999993
   166   1      13.719999999999999      19.599999999999994      25.479999999999993
   167   1      13.719999999999999      21.559999999999995      23.519999999999996
   168   1      11.759999999999998      19.599999999999994      27.439999999999998
   169   1      11.759999999999998      21.559999999999995      29.399999999999999
   170   1      13.719999999999999      19.599999999999994      29.399999999999999
   171   1      13.719999999999999      21.559999999999995      27.439999999999998
   172   1      11.759999999999998      19.599999999999994      31.359999999999996
   173   1      11.759999999999998      21.559999999999995                   33.32
   174   1      13.719999999999999      19.599999999999994                   33.32
   175   1      13.719999999999999      21.559999999999995      31.359999999999996
   176   1      11.759999999999998      19.599999999999994      35.280000000000001
   177   1      11.759999999999998      21.559999999999995      37.239999999999995
   178   1      13.719999999999999      19.599999999999994      37.239999999999995
   179   1      13.719999999999999      21.559999999999995      35.280000000000001
   180   1      13.719999999999999      21.559999999999995      39.199999999999989
   181   1      13.719999999999999      23.519999999999996      13.719999999999999
   182   1      11.759999999999998      23.519999999999996      15.679999999999998
   183   1      11.759999999999998      25.479999999999993      17.640000000000001
   184   1      13.719999999999999      23.519999999999996      17.640000000000001
   185   1      13.719999999999999      25.479999999999993      15.679999999999998
   186   1      11.759999999999998      23.519999999999996      19.599999999999994
   187   1      11.759999999999998      25.479999999999993      21.559999999999995
   188   1      13.719999999999999      23.519999999999996      21.559999999999995
   189   1      13.719999999999999      25.479999999999993      19.599999999999994
   190   1      11.759999999999998      23.519999999999996      23.519999999999996
   191   1      11.759999999999998      25.479999999999993      25.479999999999993
   192   1      13.719999999999999      23.519999999999996      25.479999999999993
   193   1      13.719999999999999      25.479999999999993      23.519999999999996
   194   1      11.759999999999998      23.519999999999996      27.439999999999998
   195   1      11.759999999999998      25.479999999999993      29.399999999999999
   196   1      13.719999999999999      23.519999999999996      29.399999999999999
   197   1      13.719999999999999      25.479999999999993      27.439999999999998
   198   1      11.759999999999998      23.519999999999996      31.359999999999996
   199   1      11.759999999999998      25.479999999999993                   33.32
   200   1      13.719999999999999      23.519999999999996                   33.32
   201   1      13.719999999999999      25.479999999999993      31.359999999999996
   202   1      11.759999999999998      23.519999999999996      35.280000000000001
   203   1      11.759999999999998      25.479999999999993      37.239999999999995
   204   1      13.719999999999999      23.519999999999996      37.239999999999995
   205   1      13.719999999999999      25.479999999999993      35.280000000000001
   206   1      11.759999999999998      23.519999999999996      39.199999999999989
   207   1      13.719999999999999      23.519999999999996      41.159999999999997
   208   1      13.719999999999999      25.479999999999993      39.199999999999989
   209   1      13.719999999999999      27.439999999999998      13.719999999999999
   210   1      11.759999999999998      27.439999999999998      15.679999999999998
   211   1      11.759999999999998      29.399999999999999      17.640000000000001
   212   1      13.719999999999999      27.439999999999998      17.640000000000001
   213   1      13.719999999999999      29.399999999999999      15.679999999999998
   214   1      11.759999999999998      27.439999999999998      19.599999999999994
   215   1      11.759999999999998      29.399999999999999      21.559999999999995
   216   1      13.719999999999999      27.439999999999998      21.559999999999995
   217   1      13.719999999999999      29.399999999999999      19.599999999999994
   218   1      11.759999999999998      27.439999999999998      23.519999999999996
   219   1      11.759999999999998      29.399999999999999      25.479999999999993
   220   1      13.719999999999999      27.439999999999998      25.479999999999993
   221   1      13.719999999999999      29.399999999999999      23.519999999999996
   222   1      11.759999999999998      27.439999999999998      27.439999999999998
   223   1      11.759999999999998      29.399999999999999      29.399999999999999
   224   1      13.719999999999999      27.439999999999998      29.399999999999999
   225   1      13.719999999999999      29.399999999999999      27.439999999999998
   226   1      11.759999999999998      27.439999999999998      31.359999999999996
   227   1      11.759999999999998      29.399999999999999                   33.32
   228   1      13.719999999999999      27.439999999999998                   33.32
   229   1      13.719999999999999      29.399999999999999      31.359999999999996
   230   1      11.759999999999998      27.439999999999998      35.280000000000001
   231   1      11.759999999999998      29.399999999999999      37.239999999999995
   232   1      13.719999999999999      27.439999999999998      37.239999999999995
   233   1      13.719999999999999      29.399999999999999      35.280000000000001
   234   1      11.759999999999998      27.439999999999998      39.199999999999989
   235   1      13.719999999999999      27.439999999999998      41.159999999999997
   236   1      13.719999999999999      29.399999999999999      39.199999999999989
   237   1      13.719999999999999      31.359999999999996      13.719999999999999
   238   1      11.759999999999998      31.359999999999996      15.679999999999998
   239   1      11.759999999999998                   33.32      17.640000000000001
   240   1      13.719999999999999      31.359999999999996      17.640000000000001
   241   1      13.719999999999999                   33.32      15.679999999999998
   242   1      11.759999999999998      31.359999999999996      19.599999999999994
   243   1      11.759999999999998                   33.32      21.559999999999995
   244   1      13.719999999999999      31.359999999999996      21.559999999999995
   245   1      13.719999999999999                   33.32      19.599999999999994
   246   1      11.759999999999998      31.359999999999996      23.519999999999996
   247   1      11.759999999999998                   33.32      25.479999999999993
   248   1      13.719999999999999      31.359999999999996      25.479999999999993
   249   1      13.719999999999999                   33.32      23.519999999999996
   250   1      11.759999999999998      31.359999999999996      27.439999999999998
   251   1      11.759999999999998                   33.32      29.399999999999999
   252   1      13.719999999999999      31.359999999999996      29.399999999999999
   253   1      13.719999999999999                   33.32      27.439999999999998
   254   1      11.759999999999998      31.359999999999996      31.359999999999996
   255   1      11.759999999999998                   33.32                   33.32
   256   1      13.719999999999999      31.359999999999996                   33.32
   257   1      13.719999999999999                   33.32      31.359999999999996
   258   1      11.759999999999998      31.359999999999996      35.280000000000001
   259   1      11.759999999999998                   33.32      37.239999999999995
   260   1      13.719999999999999      31.359999999999996      37.239999999999995
   261   1      13.719999999999999                   33.32      35.280000000000001
   262   1      11.759999999999998      31.359999999999996      39.199999999999989
   263   1      13.719999999999999      31.359999999999996      41.159999999999997
   264   1      13.719999999999999                   33.32      39.199999999999989
   265   1      11.759999999999998      37.239999999999995      17.640000000000001
   266   1      13.719999999999999      35.280000000000001      17.640000000000001
   267   1      13.719999999999999      37.239999999999995      15.679999999999998
   268   1      11.759999999999998      35.280000000000001      19.599999999999994
   269   1      11.759999999999998      37.239999999999995      21.559999999999995
   270   1      13.719999999999999      35.280000000000001      21.559999999999995
   271   1      13.719999999999999      37.239999999999995      19.599999999999994
   272   1      11.759999999999998      35.280000000000001      23.519999999999996
   273   1      11.759999999999998      37.239999999999995      25.479999999999993
   274   1      13.719999999999999      35.280000000000001      25.479999999999993
   275   1      13.719999999999999      37.239999999999995      23.519999999999996
   276   1      11.759999999999998      35.280000000000001      27.439999999999998
   277   1      11.759999999999998      37.239999999999995      29.399999999999999
   278   1      13.719999999999999      35.280000000000001      29.399999999999999
   279   1      13.719999999999999      37.239999999999995      27.439999999999998
   280   1      11.759999999999998      35.280000000000001      31.359999999999996
   281   1      11.759999999999998      37.239999999999995                   33.32
   282   1      13.719999999999999      35.280000000000001                   33.32
   283   1      13.719999999999999      37.239999999999995      31.359999999999996
   284   1      11.759999999999998      35.280000000000001      35.280000000000001
   285   1      11.759999999999998      37.239999999999995      37.239999999999995
   286   1      13.719999999999999      35.280000000000001      37.239999999999995
   287   1      13.719999999999999      37.239999999999995      35.280000000000001
   288   1      13.719999999999999      37.239999999999995      39.199999999999989
   289   1      13.719999999999999      39.199999999999989      17.640000000000001
   290   1      13.719999999999999      39.199999999999989      21.559999999999995
   291   1      11.759999999999998      39.199999999999989      23.519999999999996
   292   1      13.719999999999999      39.199999999999989      25.479999999999993
   293   1      13.719999999999999      41.159999999999997      23.519999999999996
   294   1      11.759999999999998      39.199999999999989      27.439999999999998
   295   1      13.719999999999999      39.199999999999989      29.399999999999999
   296   1      13.719999999999999      41.159999999999997      27.439999999999998
   297   1      11.759999999999998      39.199999999999989      31.359999999999996
   298   1      13.719999999999999      39.199999999999989                   33.32
   299   1      13.719999999999999      41.159999999999997      31.359999999999996
   300   1      13.719999999999999      39.199999999999989      37.239999999999995
   301   1      17.640000000000001      9.7999999999999954      23.519999999999996
   302   1      17.640000000000001      9.7999999999999954      27.439999999999998
   303   1      17.640000000000001      9.7999999999999954      31.359999999999996
   304   1      15.679999999999998      13.719999999999999      17.640000000000001
   305   1      17.640000000000001      11.759999999999998      17.640000000000001
   306   1      17.640000000000001      13.719999999999999      15.679999999999998
   307   1      15.679999999999998      13.719999999999999      21.559999999999995
   308   1      17.640000000000001      11.759999999999998      21.559999999999995
   309   1      17.640000000000001      13.719999999999999      19.599999999999994
   310   1      15.679999999999998      11.759999999999998      23.519999999999996
   311   1      15.679999999999998      13.719999999999999      25.479999999999993
   312   1      17.640000000000001      11.759999999999998      25.479999999999993
   313   1      17.640000000000001      13.719999999999999      23.519999999999996
   314   1      15.679999999999998      11.759999999999998      27.439999999999998
   315   1      15.679999999999998      13.719999999999999      29.399999999999999
   316   1      17.640000000000001      11.759999999999998      29.399999999999999
   317   1      17.640000000000001      13.719999999999999      27.439999999999998
   318   1      15.679999999999998      11.759999999999998      31.359999999999996
   319   1      15.679999999999998      13.719999999999999                   33.32
   320   1      17.640000000000001      11.759999999999998                   33.32
   321   1      17.640000000000001      13.719999999999999      31.359999999999996
   322   1      15.679999999999998      13.719999999999999      37.239999999999995
   323   1      17.640000000000001      11.759999999999998      37.239999999999995
   324   1      17.640000000000001      13.719999999999999      35.280000000000001
   325   1      17.640000000000001      13.719999999999999      39.199999999999989
   326   1      15.679999999999998      17.640000000000001      13.719999999999999
   327   1      17.640000000000001      15.679999999999998      13.719999999999999
   328   1      17.640000000000001      17.640000000000001      11.759999999999998
   329   1      15.679999999999998      15.679999999999998      15.679999999999998
   330   1      15.679999999999998      17.640000000000001      17.640000000000001
   331   1      17.640000000000001      15.679999999999998      17.640000000000001
   332   1      17.640000000000001      17.640000000000001      15.679999999999998
   333   1      15.679999999999998      15.679999999999998      19.599999999999994
   334   1      15.679999999999998      17.640000000000001      21.559999999999995
   335   1      17.640000000000001      15.679999999999998      21.559999999999995
   336   1      17.640000000000001      17.640000000000001      19.599999999999994
   337   1      15.679999999999998      15.679999999999998      23.519999999999996
   338   1      15.679999999999998      17.640000000000001      25.479999999999993
   339   1      17.640000000000001      15.679999999999998      25.479999999999993
   340   1      17.640000000000001      17.640000000000001      23.519999999999996
   341   1      15.679999999999998      15.679999999999998      27.439999999999998
   342   1      15.679999999999998      17.640000000000001      29.399999999999999
   343   1      17.640000000000001      15.679999999999998      29.399999999999999
   344   1      17.640000000000001      17.640000000000001      27.439999999999998
   345   1      15.679999999999998      15.679999999999998      31.359999999999996
   346   1      15.679999999999998      17.640000000000001                   33.32
   347   1      17.640000000000001      15.679999999999998                   33.32
   348   1      17.640000000000001      17.640000000000001      31.359999999999996
   349   1      15.679999999999998      15.679999999999998      35.280000000000001
   350   1      15.679999999999998      17.640000000000001      37.239999999999995
   351   1      17.640000000000001      15.679999999999998      37.239999999999995
   352   1      17.640000000000001      17.640000000000001      35.280000000000001
   353   1      15.679999999999998      15.679999999999998      39.199999999999989
   354   1      15.679999999999998      17.640000000000001      41.159999999999997
   355   1      17.640000000000001      15.679999999999998      41.159999999999997
   356   1      17.640000000000001      17.640000000000001      39.199999999999989
   357   1      17.640000000000001      17.640000000000001       43.11999999999999
   358   1      15.679999999999998      21.559999999999995      13.719999999999999