model_files/CuFeNi/CuFeNi_30000/CuFeNi_532/CuFeNi_532_fcc_30213_temp.data (written by ASE) 

30213 	 atoms 
3  atom types
0.0                     106  xlo xhi
0.0                     106  ylo yhi
0.0                     106  zlo zhi


Atoms 

     1   1      1.8999999999999986      47.499999999999993      53.199999999999989
     2   1      1.8999999999999986      49.399999999999991       51.29999999999999
     3   1      1.8999999999999986       51.29999999999999      49.399999999999991
     4   1      1.8999999999999986      49.399999999999991      55.099999999999994
     5   1      1.8999999999999986       51.29999999999999      53.199999999999989
     6   1      1.8999999999999986       51.29999999999999      56.999999999999986
     7   1      1.8999999999999986      53.199999999999989      47.499999999999993
     8   1      1.8999999999999986      53.199999999999989       51.29999999999999
     9   1      1.8999999999999986      55.099999999999994      49.399999999999991
    10   1                       0      53.199999999999989      53.199999999999989
    11   1      1.8999999999999986      53.199999999999989      55.099999999999994
    12   1      1.8999999999999986      55.099999999999994      53.199999999999989
    13   1      1.8999999999999986      53.199999999999989      58.899999999999991
    14   1      1.8999999999999986      55.099999999999994      56.999999999999986
    15   1      1.8999999999999986      56.999999999999986       51.29999999999999
    16   1      1.8999999999999986      56.999999999999986      55.099999999999994
    17   1      1.8999999999999986      58.899999999999991      53.199999999999989
    18   1      5.7000000000000028      43.699999999999996      49.399999999999991
    19   1      5.7000000000000028      43.699999999999996      53.199999999999989
    20   1      5.7000000000000028      43.699999999999996      56.999999999999986
    21   1      5.7000000000000028      45.599999999999987      47.499999999999993
    22   1      5.7000000000000028      47.499999999999993      45.599999999999987
    23   1      3.8000000000000043      47.499999999999993       51.29999999999999
    24   1      5.7000000000000028      45.599999999999987       51.29999999999999
    25   1      5.7000000000000028      47.499999999999993      49.399999999999991
    26   1      3.8000000000000043      45.599999999999987      53.199999999999989
    27   1      3.8000000000000043      47.499999999999993      55.099999999999994
    28   1      5.7000000000000028      45.599999999999987      55.099999999999994
    29   1      5.7000000000000028      47.499999999999993      53.199999999999989
    30   1      5.7000000000000028      45.599999999999987      58.899999999999991
    31   1      5.7000000000000028      47.499999999999993      56.999999999999986
    32   1      5.7000000000000028      47.499999999999993      60.799999999999997
    33   1      5.7000000000000028      49.399999999999991      43.699999999999996
    34   1      3.8000000000000043       51.29999999999999      47.499999999999993
    35   1      5.7000000000000028      49.399999999999991      47.499999999999993
    36   1      5.7000000000000028       51.29999999999999      45.599999999999987
    37   1      3.8000000000000043      49.399999999999991      49.399999999999991
    38   1      3.8000000000000043       51.29999999999999       51.29999999999999
    39   1      5.7000000000000028      49.399999999999991       51.29999999999999
    40   1      5.7000000000000028       51.29999999999999      49.399999999999991
    41   1      3.8000000000000043      49.399999999999991      53.199999999999989
    42   1      3.8000000000000043       51.29999999999999      55.099999999999994
    43   1      5.7000000000000028      49.399999999999991      55.099999999999994
    44   1      5.7000000000000028       51.29999999999999      53.199999999999989
    45   1      3.8000000000000043      49.399999999999991      56.999999999999986
    46   1      3.8000000000000043       51.29999999999999      58.899999999999991
    47   1      5.7000000000000028      49.399999999999991      58.899999999999991
    48   1      5.7000000000000028       51.29999999999999      56.999999999999986
    49   1      5.7000000000000028      49.399999999999991      62.700000000000003
    50   1      5.7000000000000028       51.29999999999999      60.799999999999997
    51   1      5.7000000000000028      53.199999999999989      43.699999999999996
    52   1      3.8000000000000043      53.199999999999989      45.599999999999987
    53   1      3.8000000000000043      55.099999999999994      47.499999999999993
    54   1      5.7000000000000028      53.199999999999989      47.499999999999993
    55   1      5.7000000000000028      55.099999999999994      45.599999999999987
    56   1      3.8000000000000043      53.199999999999989      49.399999999999991
    57   1      3.8000000000000043      55.099999999999994       51.29999999999999
    58   1      5.7000000000000028      53.199999999999989       51.29999999999999
    59   1      5.7000000000000028      55.099999999999994      49.399999999999991
    60   1      3.8000000000000043      53.199999999999989      53.199999999999989
    61   1      3.8000000000000043      55.099999999999994      55.099999999999994
    62   1      5.7000000000000028      53.199999999999989      55.099999999999994
    63   1      5.7000000000000028      55.099999999999994      53.199999999999989
    64   1      3.8000000000000043      53.199999999999989      56.999999999999986
    65   1      3.8000000000000043      55.099999999999994      58.899999999999991
    66   1      5.7000000000000028      53.199999999999989      58.899999999999991
    67   1      5.7000000000000028      55.099999999999994      56.999999999999986
    68   1      3.8000000000000043      53.199999999999989      60.799999999999997
    69   1      5.7000000000000028      53.199999999999989      62.700000000000003
    70   1      5.7000000000000028      55.099999999999994      60.799999999999997
    71   1      5.7000000000000028      56.999999999999986      43.699999999999996
    72   1      5.7000000000000028      56.999999999999986      47.499999999999993
    73   1      5.7000000000000028      58.899999999999991      45.599999999999987
    74   1      3.8000000000000043      56.999999999999986      49.399999999999991
    75   1      3.8000000000000043      58.899999999999991       51.29999999999999
    76   1      5.7000000000000028      56.999999999999986       51.29999999999999
    77   1      5.7000000000000028      58.899999999999991      49.399999999999991
    78   1      3.8000000000000043      56.999999999999986      53.199999999999989
    79   1      3.8000000000000043      58.899999999999991      55.099999999999994
    80   1      5.7000000000000028      56.999999999999986      55.099999999999994
    81   1      5.7000000000000028      58.899999999999991      53.199999999999989
    82   1      3.8000000000000043      56.999999999999986      56.999999999999986
    83   1      5.7000000000000028      56.999999999999986      58.899999999999991
    84   1      5.7000000000000028      58.899999999999991      56.999999999999986
    85   1      5.7000000000000028      56.999999999999986      62.700000000000003
    86   1      5.7000000000000028      58.899999999999991      60.799999999999997
    87   1      5.7000000000000028      60.799999999999997      47.499999999999993
    88   1      5.7000000000000028      60.799999999999997       51.29999999999999
    89   1      5.7000000000000028      62.700000000000003      49.399999999999991
    90   1      3.8000000000000043      60.799999999999997      53.199999999999989
    91   1      5.7000000000000028      60.799999999999997      55.099999999999994
    92   1      5.7000000000000028      62.700000000000003      53.199999999999989
    93   1      5.7000000000000028      60.799999999999997      58.899999999999991
    94   1      5.7000000000000028      62.700000000000003      56.999999999999986
    95   1                     9.5      36.099999999999994      53.199999999999989
    96   1                     9.5      39.899999999999991      45.599999999999987
    97   1      7.6000000000000014      39.899999999999991       51.29999999999999
    98   1                     9.5      37.999999999999993       51.29999999999999
    99   1                     9.5      39.899999999999991      49.399999999999991
   100   1      7.6000000000000014      37.999999999999993      53.199999999999989
   101   1      7.6000000000000014      39.899999999999991      55.099999999999994
   102   1                     9.5      37.999999999999993      55.099999999999994
   103   1                     9.5      39.899999999999991      53.199999999999989
   104   1                     9.5      39.899999999999991      56.999999999999986
   105   1                     9.5      39.899999999999991      60.799999999999997
   106   1                     9.5      41.799999999999997      43.699999999999996
   107   1                     9.5      43.699999999999996      41.799999999999997
   108   1      7.6000000000000014      43.699999999999996      47.499999999999993
   109   1                     9.5      41.799999999999997      47.499999999999993
   110   1                     9.5      43.699999999999996      45.599999999999987
   111   1      7.6000000000000014      41.799999999999997      49.399999999999991
   112   1      7.6000000000000014      43.699999999999996       51.29999999999999
   113   1                     9.5      41.799999999999997       51.29999999999999
   114   1                     9.5      43.699999999999996      49.399999999999991
   115   1      7.6000000000000014      41.799999999999997      53.199999999999989
   116   1      7.6000000000000014      43.699999999999996      55.099999999999994
   117   1                     9.5      41.799999999999997      55.099999999999994
   118   1                     9.5      43.699999999999996      53.199999999999989
   119   1      7.6000000000000014      41.799999999999997      56.999999999999986
   120   1      7.6000000000000014      43.699999999999996      58.899999999999991
   121   1                     9.5      41.799999999999997      58.899999999999991
   122   1                     9.5      43.699999999999996      56.999999999999986
   123   1                     9.5      41.799999999999997      62.700000000000003
   124   1                     9.5      43.699999999999996      60.799999999999997
   125   1                     9.5      43.699999999999996      64.599999999999994
   126   1                     9.5      45.599999999999987      39.899999999999991
   127   1      7.6000000000000014      47.499999999999993      43.699999999999996
   128   1                     9.5      45.599999999999987      43.699999999999996
   129   1                     9.5      47.499999999999993      41.799999999999997
   130   1      7.6000000000000014      45.599999999999987      45.599999999999987
   131   1      7.6000000000000014      47.499999999999993      47.499999999999993
   132   1                     9.5      45.599999999999987      47.499999999999993
   133   1                     9.5      47.499999999999993      45.599999999999987
   134   1      7.6000000000000014      45.599999999999987      49.399999999999991
   135   1      7.6000000000000014      47.499999999999993       51.29999999999999
   136   1                     9.5      45.599999999999987       51.29999999999999
   137   1                     9.5      47.499999999999993      49.399999999999991
   138   1      7.6000000000000014      45.599999999999987      53.199999999999989
   139   1      7.6000000000000014      47.499999999999993      55.099999999999994
   140   1                     9.5      45.599999999999987      55.099999999999994
   141   1                     9.5      47.499999999999993      53.199999999999989
   142   1      7.6000000000000014      45.599999999999987      56.999999999999986
   143   1      7.6000000000000014      47.499999999999993      58.899999999999991
   144   1                     9.5      45.599999999999987      58.899999999999991
   145   1                     9.5      47.499999999999993      56.999999999999986
   146   1      7.6000000000000014      45.599999999999987      60.799999999999997
   147   1      7.6000000000000014      47.499999999999993      62.700000000000003
   148   1                     9.5      45.599999999999987      62.700000000000003
   149   1                     9.5      47.499999999999993      60.799999999999997
   150   1                     9.5      45.599999999999987                    66.5
   151   1                     9.5      47.499999999999993      64.599999999999994
   152   1      7.6000000000000014       51.29999999999999      39.899999999999991
   153   1                     9.5      49.399999999999991      39.899999999999991
   154   1                     9.5       51.29999999999999      37.999999999999993
   155   1      7.6000000000000014      49.399999999999991      41.799999999999997
   156   1      7.6000000000000014       51.29999999999999      43.699999999999996
   157   1                     9.5      49.399999999999991      43.699999999999996
   158   1                     9.5       51.29999999999999      41.799999999999997
   159   1      7.6000000000000014      49.399999999999991      45.599999999999987
   160   1      7.6000000000000014       51.29999999999999      47.499999999999993
   161   1                     9.5      49.399999999999991      47.499999999999993
   162   1                     9.5       51.29999999999999      45.599999999999987
   163   1      7.6000000000000014      49.399999999999991      49.399999999999991
   164   1      7.6000000000000014       51.29999999999999       51.29999999999999
   165   1                     9.5      49.399999999999991       51.29999999999999
   166   1                     9.5       51.29999999999999      49.399999999999991
   167   1      7.6000000000000014      49.399999999999991      53.199999999999989
   168   1      7.6000000000000014       51.29999999999999      55.099999999999994
   169   1                     9.5      49.399999999999991      55.099999999999994
   170   1                     9.5       51.29999999999999      53.199999999999989
   171   1      7.6000000000000014      49.399999999999991      56.999999999999986
   172   1      7.6000000000000014       51.29999999999999      58.899999999999991
   173   1                     9.5      49.399999999999991      58.899999999999991
   174   1                     9.5       51.29999999999999      56.999999999999986
   175   1      7.6000000000000014      49.399999999999991      60.799999999999997
   176   1      7.6000000000000014       51.29999999999999      62.700000000000003
   177   1                     9.5      49.399999999999991      62.700000000000003
   178   1                     9.5       51.29999999999999      60.799999999999997
   179   1      7.6000000000000014      49.399999999999991      64.599999999999994
   180   1      7.6000000000000014       51.29999999999999                    66.5
   181   1                     9.5      49.399999999999991                    66.5
   182   1                     9.5       51.29999999999999      64.599999999999994
   183   1                     9.5       51.29999999999999      68.399999999999991
   184   1                     9.5      53.199999999999989      36.099999999999994
   185   1      7.6000000000000014      53.199999999999989      37.999999999999993
   186   1      7.6000000000000014      55.099999999999994      39.899999999999991
   187   1                     9.5      53.199999999999989      39.899999999999991
   188   1                     9.5      55.099999999999994      37.999999999999993
   189   1      7.6000000000000014      53.199999999999989      41.799999999999997
   190   1      7.6000000000000014      55.099999999999994      43.699999999999996
   191   1                     9.5      53.199999999999989      43.699999999999996
   192   1                     9.5      55.099999999999994      41.799999999999997
   193   1      7.6000000000000014      53.199999999999989      45.599999999999987
   194   1      7.6000000000000014      55.099999999999994      47.499999999999993
   195   1                     9.5      53.199999999999989      47.499999999999993
   196   1                     9.5      55.099999999999994      45.599999999999987
   197   1      7.6000000000000014      53.199999999999989      49.399999999999991
   198   1      7.6000000000000014      55.099999999999994       51.29999999999999
   199   1                     9.5      53.199999999999989       51.29999999999999
   200   1                     9.5      55.099999999999994      49.399999999999991
   201   1      7.6000000000000014      53.199999999999989      53.199999999999989
   202   1      7.6000000000000014      55.099999999999994      55.099999999999994
   203   1                     9.5      53.199999999999989      55.099999999999994
   204   1                     9.5      55.099999999999994      53.199999999999989
   205   1      7.6000000000000014      53.199999999999989      56.999999999999986
   206   1      7.6000000000000014      55.099999999999994      58.899999999999991
   207   1                     9.5      53.199999999999989      58.899999999999991
   208   1                     9.5      55.099999999999994      56.999999999999986
   209   1      7.6000000000000014      53.199999999999989      60.799999999999997
   210   1      7.6000000000000014      55.099999999999994      62.700000000000003
   211   1                     9.5      53.199999999999989      62.700000000000003
   212   1                     9.5      55.099999999999994      60.799999999999997
   213   1      7.6000000000000014      53.199999999999989      64.599999999999994
   214   1      7.6000000000000014      55.099999999999994                    66.5
   215   1                     9.5      53.199999999999989                    66.5
   216   1                     9.5      55.099999999999994      64.599999999999994
   217   1      7.6000000000000014      53.199999999999989      68.399999999999991
   218   1                     9.5      53.199999999999989      70.299999999999997
   219   1                     9.5      55.099999999999994      68.399999999999991
   220   1                     9.5      56.999999999999986      39.899999999999991
   221   1      7.6000000000000014      56.999999999999986      41.799999999999997
   222   1      7.6000000000000014      58.899999999999991      43.699999999999996
   223   1                     9.5      56.999999999999986      43.699999999999996
   224   1                     9.5      58.899999999999991      41.799999999999997
   225   1      7.6000000000000014      56.999999999999986      45.599999999999987
   226   1      7.6000000000000014      58.899999999999991      47.499999999999993
   227   1                     9.5      56.999999999999986      47.499999999999993
   228   1                     9.5      58.899999999999991      45.599999999999987
   229   1      7.6000000000000014      56.999999999999986      49.399999999999991
   230   1      7.6000000000000014      58.899999999999991       51.29999999999999
   231   1                     9.5      56.999999999999986       51.29999999999999
   232   1                     9.5      58.899999999999991      49.399999999999991
   233   1      7.6000000000000014      56.999999999999986      53.199999999999989
   234   1      7.6000000000000014      58.899999999999991      55.099999999999994
   235   1                     9.5      56.999999999999986      55.099999999999994
   236   1                     9.5      58.899999999999991      53.199999999999989
   237   1      7.6000000000000014      56.999999999999986      56.999999999999986
   238   1      7.6000000000000014      58.899999999999991      58.899999999999991
   239   1                     9.5      56.999999999999986      58.899999999999991
   240   1                     9.5      58.899999999999991      56.999999999999986
   241   1      7.6000000000000014      56.999999999999986      60.799999999999997
   242   1      7.6000000000000014      58.899999999999991      62.700000000000003
   243   1                     9.5      56.999999999999986      62.700000000000003
   244   1                     9.5      58.899999999999991      60.799999999999997
   245   1      7.6000000000000014      56.999999999999986      64.599999999999994
   246   1                     9.5      56.999999999999986                    66.5
   247   1                     9.5      58.899999999999991      64.599999999999994
   248   1                     9.5      60.799999999999997      39.899999999999991
   249   1                     9.5      60.799999999999997      43.699999999999996
   250   1                     9.5      62.700000000000003      41.799999999999997
   251   1      7.6000000000000014      60.799999999999997      45.599999999999987
   252   1      7.6000000000000014      62.700000000000003      47.499999999999993
   253   1                     9.5      60.799999999999997      47.499999999999993
   254   1                     9.5      62.700000000000003      45.599999999999987
   255   1      7.6000000000000014      60.799999999999997      49.399999999999991
   256   1      7.6000000000000014      62.700000000000003       51.29999999999999
   257   1                     9.5      60.799999999999997       51.29999999999999
   258   1                     9.5      62.700000000000003      49.399999999999991
   259   1      7.6000000000000014      60.799999999999997      53.199999999999989
   260   1      7.6000000000000014      62.700000000000003      55.099999999999994
   261   1                     9.5      60.799999999999997      55.099999999999994
   262   1                     9.5      62.700000000000003      53.199999999999989
   263   1      7.6000000000000014      60.799999999999997      56.999999999999986
   264   1      7.6000000000000014      62.700000000000003      58.899999999999991
   265   1                     9.5      60.799999999999997      58.899999999999991
   266   1                     9.5      62.700000000000003      56.999999999999986
   267   1      7.6000000000000014      60.799999999999997      60.799999999999997
   268   1                     9.5      60.799999999999997      62.700000000000003
   269   1                     9.5      62.700000000000003      60.799999999999997
   270   1                     9.5      60.799999999999997                    66.5
   271   1                     9.5      62.700000000000003      64.599999999999994
   272   1                     9.5      64.599999999999994      43.699999999999996
   273   1                     9.5      64.599999999999994      47.499999999999993
   274   1                     9.5                    66.5      45.599999999999987
   275   1      7.6000000000000014      64.599999999999994      49.399999999999991
   276   1      7.6000000000000014                    66.5       51.29999999999999
   277   1                     9.5      64.599999999999994       51.29999999999999
   278   1                     9.5                    66.5      49.399999999999991
   279   1      7.6000000000000014      64.599999999999994      53.199999999999989
   280   1      7.6000000000000014                    66.5      55.099999999999994
   281   1                     9.5      64.599999999999994      55.099999999999994
   282   1                     9.5                    66.5      53.199999999999989
   283   1      7.6000000000000014      64.599999999999994      56.999999999999986
   284   1                     9.5      64.599999999999994      58.899999999999991
   285   1                     9.5                    66.5      56.999999999999986
   286   1                     9.5      64.599999999999994      62.700000000000003
   287   1                     9.5                    66.5      60.799999999999997
   288   1                     9.5      68.399999999999991       51.29999999999999
   289   1      7.6000000000000014      68.399999999999991      53.199999999999989
   290   1                     9.5      68.399999999999991      55.099999999999994
   291   1                     9.5      70.299999999999997      53.199999999999989
   292   1      13.300000000000002                    28.5      53.199999999999989
   293   1      13.300000000000002      30.399999999999999       51.29999999999999
   294   1      13.300000000000002      32.299999999999997      49.399999999999991
   295   1      13.300000000000002      30.399999999999999      55.099999999999994
   296   1      13.300000000000002      32.299999999999997      53.199999999999989
   297   1      13.300000000000002      32.299999999999997      56.999999999999986
   298   1      13.300000000000002      36.099999999999994      41.799999999999997
   299   1      11.399999999999997      36.099999999999994      47.499999999999993
   300   1      13.300000000000002      34.199999999999996      47.499999999999993
   301   1      13.300000000000002      36.099999999999994      45.599999999999987
   302   1      11.399999999999997      34.199999999999996      49.399999999999991
   303   1      11.399999999999997      36.099999999999994       51.29999999999999
   304   1      13.300000000000002      34.199999999999996       51.29999999999999
   305   1      13.300000000000002      36.099999999999994      49.399999999999991
   306   1      11.399999999999997      34.199999999999996      53.199999999999989
   307   1      11.399999999999997      36.099999999999994      55.099999999999994
   308   1      13.300000000000002      34.199999999999996      55.099999999999994
   309   1      13.300000000000002      36.099999999999994      53.199999999999989
   310   1      11.399999999999997      34.199999999999996      56.999999999999986
   311   1      11.399999999999997      36.099999999999994      58.899999999999991
   312   1      13.300000000000002      34.199999999999996      58.899999999999991
   313   1      13.300000000000002      36.099999999999994      56.999999999999986
   314   1      13.300000000000002      36.099999999999994      60.799999999999997
   315   1      13.300000000000002      36.099999999999994      64.599999999999994
   316   1      13.300000000000002      37.999999999999993      39.899999999999991
   317   1      13.300000000000002      39.899999999999991      37.999999999999993
   318   1      11.399999999999997      39.899999999999991      43.699999999999996
   319   1      13.300000000000002      37.999999999999993      43.699999999999996
   320   1      13.300000000000002      39.899999999999991      41.799999999999997
   321   1      11.399999999999997      37.999999999999993      45.599999999999987
   322   1      11.399999999999997      39.899999999999991      47.499999999999993
   323   1      13.300000000000002      37.999999999999993      47.499999999999993
   324   1      13.300000000000002      39.899999999999991      45.599999999999987
   325   1      11.399999999999997      37.999999999999993      49.399999999999991
   326   1      11.399999999999997      39.899999999999991       51.29999999999999
   327   1      13.300000000000002      37.999999999999993       51.29999999999999
   328   1      13.300000000000002      39.899999999999991      49.399999999999991
   329   1      11.399999999999997      37.999999999999993      53.199999999999989
   330   1      11.399999999999997      39.899999999999991      55.099999999999994
   331   1      13.300000000000002      37.999999999999993      55.099999999999994
   332   1      13.300000000000002      39.899999999999991      53.199999999999989
   333   1      11.399999999999997      37.999999999999993      56.999999999999986
   334   1      11.399999999999997      39.899999999999991      58.899999999999991
   335   1      13.300000000000002      37.999999999999993      58.899999999999991
   336   1      13.300000000000002      39.899999999999991      56.999999999999986
   337   1      11.399999999999997      37.999999999999993      60.799999999999997
   338   1      11.399999999999997      39.899999999999991      62.700000000000003
   339   1      13.300000000000002      37.999999999999993      62.700000000000003
   340   1      13.300000000000002      39.899999999999991      60.799999999999997
   341   1      13.300000000000002      37.999999999999993                    66.5
   342   1      13.300000000000002      39.899999999999991      64.599999999999994
   343   1      13.300000000000002      39.899999999999991      68.399999999999991
   344   1      13.300000000000002      41.799999999999997      36.099999999999994
   345   1      11.399999999999997      43.699999999999996      39.899999999999991
   346   1      13.300000000000002      41.799999999999997      39.899999999999991
   347   1      13.300000000000002      43.699999999999996      37.999999999999993
   348   1      11.399999999999997      41.799999999999997      41.799999999999997
   349   1      11.399999999999997      43.699999999999996      43.699999999999996
   350   1      13.300000000000002      41.799999999999997      43.699999999999996
   351   1      13.300000000000002      43.699999999999996      41.799999999999997
   352   1      11.399999999999997      41.799999999999997      45.599999999999987
   353   1      11.399999999999997      43.699999999999996      47.499999999999993
   354   1      13.300000000000002      41.799999999999997      47.499999999999993
   355   1      13.300000000000002      43.699999999999996      45.599999999999987
   356   1      11.399999999999997      41.799999999999997      49.399999999999991
   357   1      11.399999999999997      43.699999999999996       51.29999999999999
   358   1      13.300000000000002      41.799999999999997       51.29999999999999