model_files/CuFeNi/CuFeNi_30000/CuFeNi_551/CuFeNi_551_fcc_30369_temp.data (written by ASE) 

30369 	 atoms 
3  atom types
0.0                     114  xlo xhi
0.0                     114  ylo yhi
0.0                     114  zlo zhi


Atoms 

     1   1      1.7899999999999991      55.490000000000002      57.279999999999994
     2   1      1.7899999999999991      57.279999999999994      55.490000000000002
     3   1                       0      57.279999999999994      57.279999999999994
     4   1      1.7899999999999991      57.279999999999994      59.069999999999993
     5   1      1.7899999999999991      59.069999999999993      57.279999999999994
     6   1      5.3700000000000045      51.909999999999997      57.279999999999994
     7   1      3.5799999999999983      55.490000000000002      55.490000000000002
     8   1      5.3700000000000045      53.700000000000003      55.490000000000002
     9   1      5.3700000000000045      55.490000000000002      53.700000000000003
    10   1      3.5799999999999983      53.700000000000003      57.279999999999994
    11   1      3.5799999999999983      55.490000000000002      59.069999999999993
    12   1      5.3700000000000045      53.700000000000003      59.069999999999993
    13   1      5.3700000000000045      55.490000000000002      57.279999999999994
    14   1      5.3700000000000045      55.490000000000002      60.859999999999999
    15   1      5.3700000000000045      57.279999999999994      51.909999999999997
    16   1      3.5799999999999983      57.279999999999994      53.700000000000003
    17   1      3.5799999999999983      59.069999999999993      55.490000000000002
    18   1      5.3700000000000045      57.279999999999994      55.490000000000002
    19   1      5.3700000000000045      59.069999999999993      53.700000000000003
    20   1      3.5799999999999983      57.279999999999994      57.279999999999994
    21   1      3.5799999999999983      59.069999999999993      59.069999999999993
    22   1      5.3700000000000045      57.279999999999994      59.069999999999993
    23   1      5.3700000000000045      59.069999999999993      57.279999999999994
    24   1      3.5799999999999983      57.279999999999994      60.859999999999999
    25   1      5.3700000000000045      57.279999999999994      62.649999999999999
    26   1      5.3700000000000045      59.069999999999993      60.859999999999999
    27   1      5.3700000000000045      60.859999999999999      55.490000000000002
    28   1      3.5799999999999983      60.859999999999999      57.279999999999994
    29   1      5.3700000000000045      60.859999999999999      59.069999999999993
    30   1      5.3700000000000045      62.649999999999999      57.279999999999994
    31   1      8.9500000000000028      48.329999999999998      57.279999999999994
    32   1      7.1600000000000028      51.909999999999997      51.909999999999997
    33   1      8.9500000000000028      50.120000000000005      51.909999999999997
    34   1      8.9500000000000028      51.909999999999997      50.120000000000005
    35   1      7.1600000000000028      51.909999999999997      55.490000000000002
    36   1      8.9500000000000028      50.120000000000005      55.490000000000002
    37   1      8.9500000000000028      51.909999999999997      53.700000000000003
    38   1      7.1600000000000028      50.120000000000005      57.279999999999994
    39   1      7.1600000000000028      51.909999999999997      59.069999999999993
    40   1      8.9500000000000028      50.120000000000005      59.069999999999993
    41   1      8.9500000000000028      51.909999999999997      57.279999999999994
    42   1      7.1600000000000028      51.909999999999997      62.649999999999999
    43   1      8.9500000000000028      50.120000000000005      62.649999999999999
    44   1      8.9500000000000028      51.909999999999997      60.859999999999999
    45   1      8.9500000000000028      51.909999999999997      64.439999999999998
    46   1      7.1600000000000028      55.490000000000002      51.909999999999997
    47   1      8.9500000000000028      53.700000000000003      51.909999999999997
    48   1      8.9500000000000028      55.490000000000002      50.120000000000005
    49   1      7.1600000000000028      53.700000000000003      53.700000000000003
    50   1      7.1600000000000028      55.490000000000002      55.490000000000002
    51   1      8.9500000000000028      53.700000000000003      55.490000000000002
    52   1      8.9500000000000028      55.490000000000002      53.700000000000003
    53   1      7.1600000000000028      53.700000000000003      57.279999999999994
    54   1      7.1600000000000028      55.490000000000002      59.069999999999993
    55   1      8.9500000000000028      53.700000000000003      59.069999999999993
    56   1      8.9500000000000028      55.490000000000002      57.279999999999994
    57   1      7.1600000000000028      53.700000000000003      60.859999999999999
    58   1      7.1600000000000028      55.490000000000002      62.649999999999999
    59   1      8.9500000000000028      53.700000000000003      62.649999999999999
    60   1      8.9500000000000028      55.490000000000002      60.859999999999999
    61   1      8.9500000000000028      55.490000000000002      64.439999999999998
    62   1      8.9500000000000028      57.279999999999994      48.329999999999998
    63   1      7.1600000000000028      57.279999999999994      50.120000000000005
    64   1      7.1600000000000028      59.069999999999993      51.909999999999997
    65   1      8.9500000000000028      57.279999999999994      51.909999999999997
    66   1      8.9500000000000028      59.069999999999993      50.120000000000005
    67   1      7.1600000000000028      57.279999999999994      53.700000000000003
    68   1      7.1600000000000028      59.069999999999993      55.490000000000002
    69   1      8.9500000000000028      57.279999999999994      55.490000000000002
    70   1      8.9500000000000028      59.069999999999993      53.700000000000003
    71   1      7.1600000000000028      57.279999999999994      57.279999999999994
    72   1      7.1600000000000028      59.069999999999993      59.069999999999993
    73   1      8.9500000000000028      57.279999999999994      59.069999999999993
    74   1      8.9500000000000028      59.069999999999993      57.279999999999994
    75   1      7.1600000000000028      57.279999999999994      60.859999999999999
    76   1      7.1600000000000028      59.069999999999993      62.649999999999999
    77   1      8.9500000000000028      57.279999999999994      62.649999999999999
    78   1      8.9500000000000028      59.069999999999993      60.859999999999999
    79   1      7.1600000000000028      57.279999999999994      64.439999999999998
    80   1      8.9500000000000028      57.279999999999994      66.230000000000004
    81   1      8.9500000000000028      59.069999999999993      64.439999999999998
    82   1      7.1600000000000028      62.649999999999999      51.909999999999997
    83   1      8.9500000000000028      60.859999999999999      51.909999999999997
    84   1      8.9500000000000028      62.649999999999999      50.120000000000005
    85   1      7.1600000000000028      60.859999999999999      53.700000000000003
    86   1      7.1600000000000028      62.649999999999999      55.490000000000002
    87   1      8.9500000000000028      60.859999999999999      55.490000000000002
    88   1      8.9500000000000028      62.649999999999999      53.700000000000003
    89   1      7.1600000000000028      60.859999999999999      57.279999999999994
    90   1      7.1600000000000028      62.649999999999999      59.069999999999993
    91   1      8.9500000000000028      60.859999999999999      59.069999999999993
    92   1      8.9500000000000028      62.649999999999999      57.279999999999994
    93   1      7.1600000000000028      60.859999999999999      60.859999999999999
    94   1      7.1600000000000028      62.649999999999999      62.649999999999999
    95   1      8.9500000000000028      60.859999999999999      62.649999999999999
    96   1      8.9500000000000028      62.649999999999999      60.859999999999999
    97   1      8.9500000000000028      62.649999999999999      64.439999999999998
    98   1      8.9500000000000028      64.439999999999998      51.909999999999997
    99   1      8.9500000000000028      64.439999999999998      55.490000000000002
   100   1      7.1600000000000028      64.439999999999998      57.279999999999994
   101   1      8.9500000000000028      64.439999999999998      59.069999999999993
   102   1      8.9500000000000028      66.230000000000004      57.279999999999994
   103   1      8.9500000000000028      64.439999999999998      62.649999999999999
   104   1      12.530000000000001                   44.75      57.279999999999994
   105   1                   10.74      48.329999999999998      48.329999999999998
   106   1      12.530000000000001      46.540000000000006      48.329999999999998
   107   1      12.530000000000001      48.329999999999998      46.540000000000006
   108   1                   10.74      48.329999999999998      51.909999999999997
   109   1      12.530000000000001      46.540000000000006      51.909999999999997
   110   1      12.530000000000001      48.329999999999998      50.120000000000005
   111   1                   10.74      48.329999999999998      55.490000000000002
   112   1      12.530000000000001      46.540000000000006      55.490000000000002
   113   1      12.530000000000001      48.329999999999998      53.700000000000003
   114   1                   10.74      46.540000000000006      57.279999999999994
   115   1                   10.74      48.329999999999998      59.069999999999993
   116   1      12.530000000000001      46.540000000000006      59.069999999999993
   117   1      12.530000000000001      48.329999999999998      57.279999999999994
   118   1                   10.74      48.329999999999998      62.649999999999999
   119   1      12.530000000000001      46.540000000000006      62.649999999999999
   120   1      12.530000000000001      48.329999999999998      60.859999999999999
   121   1                   10.74      48.329999999999998      66.230000000000004
   122   1      12.530000000000001      46.540000000000006      66.230000000000004
   123   1      12.530000000000001      48.329999999999998      64.439999999999998
   124   1      12.530000000000001      48.329999999999998      68.019999999999982
   125   1                   10.74      51.909999999999997      48.329999999999998
   126   1      12.530000000000001      50.120000000000005      48.329999999999998
   127   1      12.530000000000001      51.909999999999997      46.540000000000006
   128   1                   10.74      50.120000000000005      50.120000000000005
   129   1                   10.74      51.909999999999997      51.909999999999997
   130   1      12.530000000000001      50.120000000000005      51.909999999999997
   131   1      12.530000000000001      51.909999999999997      50.120000000000005
   132   1                   10.74      50.120000000000005      53.700000000000003
   133   1                   10.74      51.909999999999997      55.490000000000002
   134   1      12.530000000000001      50.120000000000005      55.490000000000002
   135   1      12.530000000000001      51.909999999999997      53.700000000000003
   136   1                   10.74      50.120000000000005      57.279999999999994
   137   1                   10.74      51.909999999999997      59.069999999999993
   138   1      12.530000000000001      50.120000000000005      59.069999999999993
   139   1      12.530000000000001      51.909999999999997      57.279999999999994
   140   1                   10.74      50.120000000000005      60.859999999999999
   141   1                   10.74      51.909999999999997      62.649999999999999
   142   1      12.530000000000001      50.120000000000005      62.649999999999999
   143   1      12.530000000000001      51.909999999999997      60.859999999999999
   144   1                   10.74      50.120000000000005      64.439999999999998
   145   1                   10.74      51.909999999999997      66.230000000000004
   146   1      12.530000000000001      50.120000000000005      66.230000000000004
   147   1      12.530000000000001      51.909999999999997      64.439999999999998
   148   1      12.530000000000001      51.909999999999997      68.019999999999982
   149   1                   10.74      55.490000000000002      48.329999999999998
   150   1      12.530000000000001      53.700000000000003      48.329999999999998
   151   1      12.530000000000001      55.490000000000002      46.540000000000006
   152   1                   10.74      53.700000000000003      50.120000000000005
   153   1                   10.74      55.490000000000002      51.909999999999997
   154   1      12.530000000000001      53.700000000000003      51.909999999999997
   155   1      12.530000000000001      55.490000000000002      50.120000000000005
   156   1                   10.74      53.700000000000003      53.700000000000003
   157   1                   10.74      55.490000000000002      55.490000000000002
   158   1      12.530000000000001      53.700000000000003      55.490000000000002
   159   1      12.530000000000001      55.490000000000002      53.700000000000003
   160   1                   10.74      53.700000000000003      57.279999999999994
   161   1                   10.74      55.490000000000002      59.069999999999993
   162   1      12.530000000000001      53.700000000000003      59.069999999999993
   163   1      12.530000000000001      55.490000000000002      57.279999999999994
   164   1                   10.74      53.700000000000003      60.859999999999999
   165   1                   10.74      55.490000000000002      62.649999999999999
   166   1      12.530000000000001      53.700000000000003      62.649999999999999
   167   1      12.530000000000001      55.490000000000002      60.859999999999999
   168   1                   10.74      53.700000000000003      64.439999999999998
   169   1                   10.74      55.490000000000002      66.230000000000004
   170   1      12.530000000000001      53.700000000000003      66.230000000000004
   171   1      12.530000000000001      55.490000000000002      64.439999999999998
   172   1      12.530000000000001      55.490000000000002      68.019999999999982
   173   1      12.530000000000001      57.279999999999994                   44.75
   174   1                   10.74      57.279999999999994      46.540000000000006
   175   1                   10.74      59.069999999999993      48.329999999999998
   176   1      12.530000000000001      57.279999999999994      48.329999999999998
   177   1      12.530000000000001      59.069999999999993      46.540000000000006
   178   1                   10.74      57.279999999999994      50.120000000000005
   179   1                   10.74      59.069999999999993      51.909999999999997
   180   1      12.530000000000001      57.279999999999994      51.909999999999997
   181   1      12.530000000000001      59.069999999999993      50.120000000000005
   182   1                   10.74      57.279999999999994      53.700000000000003
   183   1                   10.74      59.069999999999993      55.490000000000002
   184   1      12.530000000000001      57.279999999999994      55.490000000000002
   185   1      12.530000000000001      59.069999999999993      53.700000000000003
   186   1                   10.74      57.279999999999994      57.279999999999994
   187   1                   10.74      59.069999999999993      59.069999999999993
   188   1      12.530000000000001      57.279999999999994      59.069999999999993
   189   1      12.530000000000001      59.069999999999993      57.279999999999994
   190   1                   10.74      57.279999999999994      60.859999999999999
   191   1                   10.74      59.069999999999993      62.649999999999999
   192   1      12.530000000000001      57.279999999999994      62.649999999999999
   193   1      12.530000000000001      59.069999999999993      60.859999999999999
   194   1                   10.74      57.279999999999994      64.439999999999998
   195   1                   10.74      59.069999999999993      66.230000000000004
   196   1      12.530000000000001      57.279999999999994      66.230000000000004
   197   1      12.530000000000001      59.069999999999993      64.439999999999998
   198   1                   10.74      57.279999999999994      68.019999999999982
   199   1      12.530000000000001      57.279999999999994      69.810000000000002
   200   1      12.530000000000001      59.069999999999993      68.019999999999982
   201   1                   10.74      62.649999999999999      48.329999999999998
   202   1      12.530000000000001      60.859999999999999      48.329999999999998
   203   1      12.530000000000001      62.649999999999999      46.540000000000006
   204   1                   10.74      60.859999999999999      50.120000000000005
   205   1                   10.74      62.649999999999999      51.909999999999997
   206   1      12.530000000000001      60.859999999999999      51.909999999999997
   207   1      12.530000000000001      62.649999999999999      50.120000000000005
   208   1                   10.74      60.859999999999999      53.700000000000003
   209   1                   10.74      62.649999999999999      55.490000000000002
   210   1      12.530000000000001      60.859999999999999      55.490000000000002
   211   1      12.530000000000001      62.649999999999999      53.700000000000003
   212   1                   10.74      60.859999999999999      57.279999999999994
   213   1                   10.74      62.649999999999999      59.069999999999993
   214   1      12.530000000000001      60.859999999999999      59.069999999999993
   215   1      12.530000000000001      62.649999999999999      57.279999999999994
   216   1                   10.74      60.859999999999999      60.859999999999999
   217   1                   10.74      62.649999999999999      62.649999999999999
   218   1      12.530000000000001      60.859999999999999      62.649999999999999
   219   1      12.530000000000001      62.649999999999999      60.859999999999999
   220   1                   10.74      60.859999999999999      64.439999999999998
   221   1                   10.74      62.649999999999999      66.230000000000004
   222   1      12.530000000000001      60.859999999999999      66.230000000000004
   223   1      12.530000000000001      62.649999999999999      64.439999999999998
   224   1      12.530000000000001      62.649999999999999      68.019999999999982
   225   1                   10.74      66.230000000000004      48.329999999999998
   226   1      12.530000000000001      64.439999999999998      48.329999999999998
   227   1      12.530000000000001      66.230000000000004      46.540000000000006
   228   1                   10.74      64.439999999999998      50.120000000000005
   229   1                   10.74      66.230000000000004      51.909999999999997
   230   1      12.530000000000001      64.439999999999998      51.909999999999997
   231   1      12.530000000000001      66.230000000000004      50.120000000000005
   232   1                   10.74      64.439999999999998      53.700000000000003
   233   1                   10.74      66.230000000000004      55.490000000000002
   234   1      12.530000000000001      64.439999999999998      55.490000000000002
   235   1      12.530000000000001      66.230000000000004      53.700000000000003
   236   1                   10.74      64.439999999999998      57.279999999999994
   237   1                   10.74      66.230000000000004      59.069999999999993
   238   1      12.530000000000001      64.439999999999998      59.069999999999993
   239   1      12.530000000000001      66.230000000000004      57.279999999999994
   240   1                   10.74      64.439999999999998      60.859999999999999
   241   1                   10.74      66.230000000000004      62.649999999999999
   242   1      12.530000000000001      64.439999999999998      62.649999999999999
   243   1      12.530000000000001      66.230000000000004      60.859999999999999
   244   1                   10.74      64.439999999999998      64.439999999999998
   245   1                   10.74      66.230000000000004      66.230000000000004
   246   1      12.530000000000001      64.439999999999998      66.230000000000004
   247   1      12.530000000000001      66.230000000000004      64.439999999999998
   248   1      12.530000000000001      66.230000000000004      68.019999999999982
   249   1      12.530000000000001      68.019999999999982      48.329999999999998
   250   1      12.530000000000001      68.019999999999982      51.909999999999997
   251   1      12.530000000000001      68.019999999999982      55.490000000000002
   252   1                   10.74      68.019999999999982      57.279999999999994
   253   1      12.530000000000001      68.019999999999982      59.069999999999993
   254   1      12.530000000000001      69.810000000000002      57.279999999999994
   255   1      12.530000000000001      68.019999999999982      62.649999999999999
   256   1      12.530000000000001      68.019999999999982      66.230000000000004
   257   1      16.109999999999999      41.170000000000002      57.279999999999994
   258   1      14.319999999999999                   44.75      48.329999999999998
   259   1      16.109999999999999      42.959999999999994      48.329999999999998
   260   1      16.109999999999999                   44.75      46.540000000000006
   261   1      14.319999999999999                   44.75      51.909999999999997
   262   1      16.109999999999999      42.959999999999994      51.909999999999997
   263   1      16.109999999999999                   44.75      50.120000000000005
   264   1      14.319999999999999                   44.75      55.490000000000002
   265   1      16.109999999999999      42.959999999999994      55.490000000000002
   266   1      16.109999999999999                   44.75      53.700000000000003
   267   1      14.319999999999999      42.959999999999994      57.279999999999994
   268   1      14.319999999999999                   44.75      59.069999999999993
   269   1      16.109999999999999      42.959999999999994      59.069999999999993
   270   1      16.109999999999999                   44.75      57.279999999999994
   271   1      14.319999999999999                   44.75      62.649999999999999
   272   1      16.109999999999999      42.959999999999994      62.649999999999999
   273   1      16.109999999999999                   44.75      60.859999999999999
   274   1      14.319999999999999                   44.75      66.230000000000004
   275   1      16.109999999999999      42.959999999999994      66.230000000000004
   276   1      16.109999999999999                   44.75      64.439999999999998
   277   1      16.109999999999999                   44.75      68.019999999999982
   278   1      14.319999999999999      48.329999999999998                   44.75
   279   1      16.109999999999999      46.540000000000006                   44.75
   280   1      16.109999999999999      48.329999999999998      42.959999999999994
   281   1      14.319999999999999      46.540000000000006      46.540000000000006
   282   1      14.319999999999999      48.329999999999998      48.329999999999998
   283   1      16.109999999999999      46.540000000000006      48.329999999999998
   284   1      16.109999999999999      48.329999999999998      46.540000000000006
   285   1      14.319999999999999      46.540000000000006      50.120000000000005
   286   1      14.319999999999999      48.329999999999998      51.909999999999997
   287   1      16.109999999999999      46.540000000000006      51.909999999999997
   288   1      16.109999999999999      48.329999999999998      50.120000000000005
   289   1      14.319999999999999      46.540000000000006      53.700000000000003
   290   1      14.319999999999999      48.329999999999998      55.490000000000002
   291   1      16.109999999999999      46.540000000000006      55.490000000000002
   292   1      16.109999999999999      48.329999999999998      53.700000000000003
   293   1      14.319999999999999      46.540000000000006      57.279999999999994
   294   1      14.319999999999999      48.329999999999998      59.069999999999993
   295   1      16.109999999999999      46.540000000000006      59.069999999999993
   296   1      16.109999999999999      48.329999999999998      57.279999999999994
   297   1      14.319999999999999      46.540000000000006      60.859999999999999
   298   1      14.319999999999999      48.329999999999998      62.649999999999999
   299   1      16.109999999999999      46.540000000000006      62.649999999999999
   300   1      16.109999999999999      48.329999999999998      60.859999999999999
   301   1      14.319999999999999      46.540000000000006      64.439999999999998
   302   1      14.319999999999999      48.329999999999998      66.230000000000004
   303   1      16.109999999999999      46.540000000000006      66.230000000000004
   304   1      16.109999999999999      48.329999999999998      64.439999999999998
   305   1      14.319999999999999      46.540000000000006      68.019999999999982
   306   1      14.319999999999999      48.329999999999998      69.810000000000002
   307   1      16.109999999999999      46.540000000000006      69.810000000000002
   308   1      16.109999999999999      48.329999999999998      68.019999999999982
   309   1      16.109999999999999      48.329999999999998      71.600000000000009
   310   1      14.319999999999999      51.909999999999997                   44.75
   311   1      16.109999999999999      50.120000000000005                   44.75
   312   1      16.109999999999999      51.909999999999997      42.959999999999994
   313   1      14.319999999999999      50.120000000000005      46.540000000000006
   314   1      14.319999999999999      51.909999999999997      48.329999999999998
   315   1      16.109999999999999      50.120000000000005      48.329999999999998
   316   1      16.109999999999999      51.909999999999997      46.540000000000006
   317   1      14.319999999999999      50.120000000000005      50.120000000000005
   318   1      14.319999999999999      51.909999999999997      51.909999999999997
   319   1      16.109999999999999      50.120000000000005      51.909999999999997
   320   1      16.109999999999999      51.909999999999997      50.120000000000005
   321   1      14.319999999999999      50.120000000000005      53.700000000000003
   322   1      14.319999999999999      51.909999999999997      55.490000000000002
   323   1      16.109999999999999      50.120000000000005      55.490000000000002
   324   1      16.109999999999999      51.909999999999997      53.700000000000003
   325   1      14.319999999999999      50.120000000000005      57.279999999999994
   326   1      14.319999999999999      51.909999999999997      59.069999999999993
   327   1      16.109999999999999      50.120000000000005      59.069999999999993
   328   1      16.109999999999999      51.909999999999997      57.279999999999994
   329   1      14.319999999999999      50.120000000000005      60.859999999999999
   330   1      14.319999999999999      51.909999999999997      62.649999999999999
   331   1      16.109999999999999      50.120000000000005      62.649999999999999
   332   1      16.109999999999999      51.909999999999997      60.859999999999999
   333   1      14.319999999999999      50.120000000000005      64.439999999999998
   334   1      14.319999999999999      51.909999999999997      66.230000000000004
   335   1      16.109999999999999      50.120000000000005      66.230000000000004
   336   1      16.109999999999999      51.909999999999997      64.439999999999998
   337   1      14.319999999999999      50.120000000000005      68.019999999999982
   338   1      14.319999999999999      51.909999999999997      69.810000000000002
   339   1      16.109999999999999      50.120000000000005      69.810000000000002
   340   1      16.109999999999999      51.909999999999997      68.019999999999982
   341   1      16.109999999999999      51.909999999999997      71.600000000000009
   342   1      14.319999999999999      55.490000000000002                   44.75
   343   1      16.109999999999999      53.700000000000003                   44.75
   344   1      16.109999999999999      55.490000000000002      42.959999999999994
   345   1      14.319999999999999      53.700000000000003      46.540000000000006
   346   1      14.319999999999999      55.490000000000002      48.329999999999998
   347   1      16.109999999999999      53.700000000000003      48.329999999999998
   348   1      16.109999999999999      55.490000000000002      46.540000000000006
   349   1      14.319999999999999      53.700000000000003      50.120000000000005
   350   1      14.319999999999999      55.490000000000002      51.909999999999997
   351   1      16.109999999999999      53.700000000000003      51.909999999999997
   352   1      16.109999999999999      55.490000000000002      50.120000000000005
   353   1      14.319999999999999      53.700000000000003      53.700000000000003
   354   1      14.319999999999999      55.490000000000002      55.490000000000002
   355   1      16.109999999999999      53.700000000000003      55.490000000000002
   356   1      16.109999999999999      55.490000000000002      53.700000000000003
   357   1      14.319999999999999      53.700000000000003      57.279999999999994
   358   1      14.319999999999999      55.490000000000002      59.069999999999993