model_files/PtAu/PtAu_30000/PtAu_543/PtAu_543_fcc_30079_temp.data (written by ASE) 

30079 	 atoms 
2  atom types
0.0                     127  xlo xhi
0.0                     127  ylo yhi
0.0                     127  zlo zhi


Atoms 

     1   1                       0      60.645000000000003      62.666499999999999
     2   1                       0      62.666499999999999      60.645000000000003
     3   1                       0      62.666499999999999      64.688000000000002
     4   1                       0      64.688000000000002      62.666499999999999
     5   1      4.0429999999999993      56.602000000000004      62.666499999999999
     6   1      2.0214999999999961      60.645000000000003      60.645000000000003
     7   1      4.0429999999999993                 58.6235      60.645000000000003
     8   1      4.0429999999999993      60.645000000000003                 58.6235
     9   1      2.0214999999999961                 58.6235      62.666499999999999
    10   1      2.0214999999999961      60.645000000000003      64.688000000000002
    11   1      4.0429999999999993                 58.6235      64.688000000000002
    12   1      4.0429999999999993      60.645000000000003      62.666499999999999
    13   1      4.0429999999999993      60.645000000000003      66.709499999999991
    14   1      4.0429999999999993      62.666499999999999      56.602000000000004
    15   1      2.0214999999999961      62.666499999999999                 58.6235
    16   1      2.0214999999999961      64.688000000000002      60.645000000000003
    17   1      4.0429999999999993      62.666499999999999      60.645000000000003
    18   1      4.0429999999999993      64.688000000000002                 58.6235
    19   1      2.0214999999999961      62.666499999999999      62.666499999999999
    20   1      2.0214999999999961      64.688000000000002      64.688000000000002
    21   1      4.0429999999999993      62.666499999999999      64.688000000000002
    22   1      4.0429999999999993      64.688000000000002      62.666499999999999
    23   1      2.0214999999999961      62.666499999999999      66.709499999999991
    24   1      4.0429999999999993      62.666499999999999      68.731000000000009
    25   1      4.0429999999999993      64.688000000000002      66.709499999999991
    26   1      4.0429999999999993      66.709499999999991      60.645000000000003
    27   1      2.0214999999999961      66.709499999999991      62.666499999999999
    28   1      4.0429999999999993      66.709499999999991      64.688000000000002
    29   1      4.0429999999999993      68.731000000000009      62.666499999999999
    30   1      8.0859999999999985      52.559000000000005      62.666499999999999
    31   1      6.0644999999999945      56.602000000000004      60.645000000000003
    32   1      8.0859999999999985      54.580500000000001      60.645000000000003
    33   1      8.0859999999999985      56.602000000000004                 58.6235
    34   1      6.0644999999999945      54.580500000000001      62.666499999999999
    35   1      6.0644999999999945      56.602000000000004      64.688000000000002
    36   1      8.0859999999999985      54.580500000000001      64.688000000000002
    37   1      8.0859999999999985      56.602000000000004      62.666499999999999
    38   1      8.0859999999999985      56.602000000000004      66.709499999999991
    39   1      6.0644999999999945      60.645000000000003      56.602000000000004
    40   1      8.0859999999999985                 58.6235      56.602000000000004
    41   1      8.0859999999999985      60.645000000000003      54.580500000000001
    42   1      6.0644999999999945                 58.6235                 58.6235
    43   1      6.0644999999999945      60.645000000000003      60.645000000000003
    44   1      8.0859999999999985                 58.6235      60.645000000000003
    45   1      8.0859999999999985      60.645000000000003                 58.6235
    46   1      6.0644999999999945                 58.6235      62.666499999999999
    47   1      6.0644999999999945      60.645000000000003      64.688000000000002
    48   1      8.0859999999999985                 58.6235      64.688000000000002
    49   1      8.0859999999999985      60.645000000000003      62.666499999999999
    50   1      6.0644999999999945                 58.6235      66.709499999999991
    51   1      6.0644999999999945      60.645000000000003      68.731000000000009
    52   1      8.0859999999999985                 58.6235      68.731000000000009
    53   1      8.0859999999999985      60.645000000000003      66.709499999999991
    54   1      8.0859999999999985      60.645000000000003      70.752499999999998
    55   1      8.0859999999999985      62.666499999999999      52.559000000000005
    56   1      6.0644999999999945      62.666499999999999      54.580500000000001
    57   1      6.0644999999999945      64.688000000000002      56.602000000000004
    58   1      8.0859999999999985      62.666499999999999      56.602000000000004
    59   1      8.0859999999999985      64.688000000000002      54.580500000000001
    60   1      6.0644999999999945      62.666499999999999                 58.6235
    61   1      6.0644999999999945      64.688000000000002      60.645000000000003
    62   1      8.0859999999999985      62.666499999999999      60.645000000000003
    63   1      8.0859999999999985      64.688000000000002                 58.6235
    64   1      6.0644999999999945      62.666499999999999      62.666499999999999
    65   1      6.0644999999999945      64.688000000000002      64.688000000000002
    66   1      8.0859999999999985      62.666499999999999      64.688000000000002
    67   1      8.0859999999999985      64.688000000000002      62.666499999999999
    68   1      6.0644999999999945      62.666499999999999      66.709499999999991
    69   1      6.0644999999999945      64.688000000000002      68.731000000000009
    70   1      8.0859999999999985      62.666499999999999      68.731000000000009
    71   1      8.0859999999999985      64.688000000000002      66.709499999999991
    72   1      6.0644999999999945      62.666499999999999      70.752499999999998
    73   1      8.0859999999999985      62.666499999999999      72.774000000000001
    74   1      8.0859999999999985      64.688000000000002      70.752499999999998
    75   1      8.0859999999999985      66.709499999999991      56.602000000000004
    76   1      6.0644999999999945      66.709499999999991                 58.6235
    77   1      6.0644999999999945      68.731000000000009      60.645000000000003
    78   1      8.0859999999999985      66.709499999999991      60.645000000000003
    79   1      8.0859999999999985      68.731000000000009                 58.6235
    80   1      6.0644999999999945      66.709499999999991      62.666499999999999
    81   1      6.0644999999999945      68.731000000000009      64.688000000000002
    82   1      8.0859999999999985      66.709499999999991      64.688000000000002
    83   1      8.0859999999999985      68.731000000000009      62.666499999999999
    84   1      6.0644999999999945      66.709499999999991      66.709499999999991
    85   1      8.0859999999999985      66.709499999999991      68.731000000000009
    86   1      8.0859999999999985      68.731000000000009      66.709499999999991
    87   1      8.0859999999999985      70.752499999999998      60.645000000000003
    88   1      6.0644999999999945      70.752499999999998      62.666499999999999
    89   1      8.0859999999999985      70.752499999999998      64.688000000000002
    90   1      8.0859999999999985      72.774000000000001      62.666499999999999
    91   1      12.128999999999996      48.516000000000005                 58.6235
    92   1      12.128999999999996      48.516000000000005      62.666499999999999
    93   1      12.128999999999996      48.516000000000005      66.709499999999991
    94   1      10.107500000000002      52.559000000000005      56.602000000000004
    95   1      12.128999999999996      50.537499999999994      56.602000000000004
    96   1      12.128999999999996      52.559000000000005      54.580500000000001
    97   1      10.107500000000002      52.559000000000005      60.645000000000003
    98   1      12.128999999999996      50.537499999999994      60.645000000000003
    99   1      12.128999999999996      52.559000000000005                 58.6235
   100   1      10.107500000000002      50.537499999999994      62.666499999999999
   101   1      10.107500000000002      52.559000000000005      64.688000000000002
   102   1      12.128999999999996      50.537499999999994      64.688000000000002
   103   1      12.128999999999996      52.559000000000005      62.666499999999999
   104   1      10.107500000000002      52.559000000000005      68.731000000000009
   105   1      12.128999999999996      50.537499999999994      68.731000000000009
   106   1      12.128999999999996      52.559000000000005      66.709499999999991
   107   1      12.128999999999996      52.559000000000005      70.752499999999998
   108   1      10.107500000000002      56.602000000000004      52.559000000000005
   109   1      12.128999999999996      54.580500000000001      52.559000000000005
   110   1      12.128999999999996      56.602000000000004      50.537499999999994
   111   1      10.107500000000002      54.580500000000001      54.580500000000001
   112   1      10.107500000000002      56.602000000000004      56.602000000000004
   113   1      12.128999999999996      54.580500000000001      56.602000000000004
   114   1      12.128999999999996      56.602000000000004      54.580500000000001
   115   1      10.107500000000002      54.580500000000001                 58.6235
   116   1      10.107500000000002      56.602000000000004      60.645000000000003
   117   1      12.128999999999996      54.580500000000001      60.645000000000003
   118   1      12.128999999999996      56.602000000000004                 58.6235
   119   1      10.107500000000002      54.580500000000001      62.666499999999999
   120   1      10.107500000000002      56.602000000000004      64.688000000000002
   121   1      12.128999999999996      54.580500000000001      64.688000000000002
   122   1      12.128999999999996      56.602000000000004      62.666499999999999
   123   1      10.107500000000002      54.580500000000001      66.709499999999991
   124   1      10.107500000000002      56.602000000000004      68.731000000000009
   125   1      12.128999999999996      54.580500000000001      68.731000000000009
   126   1      12.128999999999996      56.602000000000004      66.709499999999991
   127   1      10.107500000000002      54.580500000000001      70.752499999999998
   128   1      10.107500000000002      56.602000000000004      72.774000000000001
   129   1      12.128999999999996      54.580500000000001      72.774000000000001
   130   1      12.128999999999996      56.602000000000004      70.752499999999998
   131   1      12.128999999999996      56.602000000000004      74.795500000000004
   132   1      12.128999999999996                 58.6235      48.516000000000005
   133   1      10.107500000000002      60.645000000000003      52.559000000000005
   134   1      12.128999999999996                 58.6235      52.559000000000005
   135   1      12.128999999999996      60.645000000000003      50.537499999999994
   136   1      10.107500000000002                 58.6235      54.580500000000001
   137   1      10.107500000000002      60.645000000000003      56.602000000000004
   138   1      12.128999999999996                 58.6235      56.602000000000004
   139   1      12.128999999999996      60.645000000000003      54.580500000000001
   140   1      10.107500000000002                 58.6235                 58.6235
   141   1      10.107500000000002      60.645000000000003      60.645000000000003
   142   1      12.128999999999996                 58.6235      60.645000000000003
   143   1      12.128999999999996      60.645000000000003                 58.6235
   144   1      10.107500000000002                 58.6235      62.666499999999999
   145   1      10.107500000000002      60.645000000000003      64.688000000000002
   146   1      12.128999999999996                 58.6235      64.688000000000002
   147   1      12.128999999999996      60.645000000000003      62.666499999999999
   148   1      10.107500000000002                 58.6235      66.709499999999991
   149   1      10.107500000000002      60.645000000000003      68.731000000000009
   150   1      12.128999999999996                 58.6235      68.731000000000009
   151   1      12.128999999999996      60.645000000000003      66.709499999999991
   152   1      10.107500000000002                 58.6235      70.752499999999998
   153   1      10.107500000000002      60.645000000000003      72.774000000000001
   154   1      12.128999999999996                 58.6235      72.774000000000001
   155   1      12.128999999999996      60.645000000000003      70.752499999999998
   156   1      12.128999999999996                 58.6235      76.817000000000007
   157   1      12.128999999999996      60.645000000000003      74.795500000000004
   158   1      12.128999999999996      62.666499999999999      48.516000000000005
   159   1      10.107500000000002      62.666499999999999      50.537499999999994
   160   1      10.107500000000002      64.688000000000002      52.559000000000005
   161   1      12.128999999999996      62.666499999999999      52.559000000000005
   162   1      12.128999999999996      64.688000000000002      50.537499999999994
   163   1      10.107500000000002      62.666499999999999      54.580500000000001
   164   1      10.107500000000002      64.688000000000002      56.602000000000004
   165   1      12.128999999999996      62.666499999999999      56.602000000000004
   166   1      12.128999999999996      64.688000000000002      54.580500000000001
   167   1      10.107500000000002      62.666499999999999                 58.6235
   168   1      10.107500000000002      64.688000000000002      60.645000000000003
   169   1      12.128999999999996      62.666499999999999      60.645000000000003
   170   1      12.128999999999996      64.688000000000002                 58.6235
   171   1      10.107500000000002      62.666499999999999      62.666499999999999
   172   1      10.107500000000002      64.688000000000002      64.688000000000002
   173   1      12.128999999999996      62.666499999999999      64.688000000000002
   174   1      12.128999999999996      64.688000000000002      62.666499999999999
   175   1      10.107500000000002      62.666499999999999      66.709499999999991
   176   1      10.107500000000002      64.688000000000002      68.731000000000009
   177   1      12.128999999999996      62.666499999999999      68.731000000000009
   178   1      12.128999999999996      64.688000000000002      66.709499999999991
   179   1      10.107500000000002      62.666499999999999      70.752499999999998
   180   1      10.107500000000002      64.688000000000002      72.774000000000001
   181   1      12.128999999999996      62.666499999999999      72.774000000000001
   182   1      12.128999999999996      64.688000000000002      70.752499999999998
   183   1      10.107500000000002      62.666499999999999      74.795500000000004
   184   1      12.128999999999996      62.666499999999999      76.817000000000007
   185   1      12.128999999999996      64.688000000000002      74.795500000000004
   186   1      12.128999999999996      66.709499999999991      48.516000000000005
   187   1      10.107500000000002      68.731000000000009      52.559000000000005
   188   1      12.128999999999996      66.709499999999991      52.559000000000005
   189   1      12.128999999999996      68.731000000000009      50.537499999999994
   190   1      10.107500000000002      66.709499999999991      54.580500000000001
   191   1      10.107500000000002      68.731000000000009      56.602000000000004
   192   1      12.128999999999996      66.709499999999991      56.602000000000004
   193   1      12.128999999999996      68.731000000000009      54.580500000000001
   194   1      10.107500000000002      66.709499999999991                 58.6235
   195   1      10.107500000000002      68.731000000000009      60.645000000000003
   196   1      12.128999999999996      66.709499999999991      60.645000000000003
   197   1      12.128999999999996      68.731000000000009                 58.6235
   198   1      10.107500000000002      66.709499999999991      62.666499999999999
   199   1      10.107500000000002      68.731000000000009      64.688000000000002
   200   1      12.128999999999996      66.709499999999991      64.688000000000002
   201   1      12.128999999999996      68.731000000000009      62.666499999999999
   202   1      10.107500000000002      66.709499999999991      66.709499999999991
   203   1      10.107500000000002      68.731000000000009      68.731000000000009
   204   1      12.128999999999996      66.709499999999991      68.731000000000009
   205   1      12.128999999999996      68.731000000000009      66.709499999999991
   206   1      10.107500000000002      66.709499999999991      70.752499999999998
   207   1      10.107500000000002      68.731000000000009      72.774000000000001
   208   1      12.128999999999996      66.709499999999991      72.774000000000001
   209   1      12.128999999999996      68.731000000000009      70.752499999999998
   210   1      12.128999999999996      66.709499999999991      76.817000000000007
   211   1      12.128999999999996      68.731000000000009      74.795500000000004
   212   1      12.128999999999996      70.752499999999998      52.559000000000005
   213   1      10.107500000000002      70.752499999999998      54.580500000000001
   214   1      10.107500000000002      72.774000000000001      56.602000000000004
   215   1      12.128999999999996      70.752499999999998      56.602000000000004
   216   1      12.128999999999996      72.774000000000001      54.580500000000001
   217   1      10.107500000000002      70.752499999999998                 58.6235
   218   1      10.107500000000002      72.774000000000001      60.645000000000003
   219   1      12.128999999999996      70.752499999999998      60.645000000000003
   220   1      12.128999999999996      72.774000000000001                 58.6235
   221   1      10.107500000000002      70.752499999999998      62.666499999999999
   222   1      10.107500000000002      72.774000000000001      64.688000000000002
   223   1      12.128999999999996      70.752499999999998      64.688000000000002
   224   1      12.128999999999996      72.774000000000001      62.666499999999999
   225   1      10.107500000000002      70.752499999999998      66.709499999999991
   226   1      10.107500000000002      72.774000000000001      68.731000000000009
   227   1      12.128999999999996      70.752499999999998      68.731000000000009
   228   1      12.128999999999996      72.774000000000001      66.709499999999991
   229   1      10.107500000000002      70.752499999999998      70.752499999999998
   230   1      12.128999999999996      70.752499999999998      72.774000000000001
   231   1      12.128999999999996      72.774000000000001      70.752499999999998
   232   1      12.128999999999996      74.795500000000004      56.602000000000004
   233   1      12.128999999999996      74.795500000000004      60.645000000000003
   234   1      12.128999999999996      76.817000000000007                 58.6235
   235   1      10.107500000000002      74.795500000000004      62.666499999999999
   236   1      12.128999999999996      74.795500000000004      64.688000000000002
   237   1      12.128999999999996      76.817000000000007      62.666499999999999
   238   1      12.128999999999996      74.795500000000004      68.731000000000009
   239   1      12.128999999999996      76.817000000000007      66.709499999999991
   240   1      16.171999999999997                   40.43      62.666499999999999
   241   1      14.150499999999994      44.472999999999999      60.645000000000003
   242   1      16.171999999999997      42.451499999999996      60.645000000000003
   243   1      16.171999999999997      44.472999999999999                 58.6235
   244   1      14.150499999999994      44.472999999999999      64.688000000000002
   245   1      16.171999999999997      42.451499999999996      64.688000000000002
   246   1      16.171999999999997      44.472999999999999      62.666499999999999
   247   1      16.171999999999997      44.472999999999999      66.709499999999991
   248   1      14.150499999999994      48.516000000000005      56.602000000000004
   249   1      16.171999999999997      46.494500000000002      56.602000000000004
   250   1      16.171999999999997      48.516000000000005      54.580500000000001
   251   1      14.150499999999994      46.494500000000002                 58.6235
   252   1      14.150499999999994      48.516000000000005      60.645000000000003
   253   1      16.171999999999997      46.494500000000002      60.645000000000003
   254   1      16.171999999999997      48.516000000000005                 58.6235
   255   1      14.150499999999994      46.494500000000002      62.666499999999999
   256   1      14.150499999999994      48.516000000000005      64.688000000000002
   257   1      16.171999999999997      46.494500000000002      64.688000000000002
   258   1      16.171999999999997      48.516000000000005      62.666499999999999
   259   1      14.150499999999994      46.494500000000002      66.709499999999991
   260   1      14.150499999999994      48.516000000000005      68.731000000000009
   261   1      16.171999999999997      46.494500000000002      68.731000000000009
   262   1      16.171999999999997      48.516000000000005      66.709499999999991
   263   1      16.171999999999997      48.516000000000005      70.752499999999998
   264   1      14.150499999999994      52.559000000000005      52.559000000000005
   265   1      16.171999999999997      50.537499999999994      52.559000000000005
   266   1      16.171999999999997      52.559000000000005      50.537499999999994
   267   1      14.150499999999994      50.537499999999994      54.580500000000001
   268   1      14.150499999999994      52.559000000000005      56.602000000000004
   269   1      16.171999999999997      50.537499999999994      56.602000000000004
   270   1      16.171999999999997      52.559000000000005      54.580500000000001
   271   1      14.150499999999994      50.537499999999994                 58.6235
   272   1      14.150499999999994      52.559000000000005      60.645000000000003
   273   1      16.171999999999997      50.537499999999994      60.645000000000003
   274   1      16.171999999999997      52.559000000000005                 58.6235
   275   1      14.150499999999994      50.537499999999994      62.666499999999999
   276   1      14.150499999999994      52.559000000000005      64.688000000000002
   277   1      16.171999999999997      50.537499999999994      64.688000000000002
   278   1      16.171999999999997      52.559000000000005      62.666499999999999
   279   1      14.150499999999994      50.537499999999994      66.709499999999991
   280   1      14.150499999999994      52.559000000000005      68.731000000000009
   281   1      16.171999999999997      50.537499999999994      68.731000000000009
   282   1      16.171999999999997      52.559000000000005      66.709499999999991
   283   1      14.150499999999994      50.537499999999994      70.752499999999998
   284   1      14.150499999999994      52.559000000000005      72.774000000000001
   285   1      16.171999999999997      50.537499999999994      72.774000000000001
   286   1      16.171999999999997      52.559000000000005      70.752499999999998
   287   1      16.171999999999997      52.559000000000005      74.795500000000004
   288   1      14.150499999999994      56.602000000000004      48.516000000000005
   289   1      16.171999999999997      54.580500000000001      48.516000000000005
   290   1      16.171999999999997      56.602000000000004      46.494500000000002
   291   1      14.150499999999994      54.580500000000001      50.537499999999994
   292   1      14.150499999999994      56.602000000000004      52.559000000000005
   293   1      16.171999999999997      54.580500000000001      52.559000000000005
   294   1      16.171999999999997      56.602000000000004      50.537499999999994
   295   1      14.150499999999994      54.580500000000001      54.580500000000001
   296   1      14.150499999999994      56.602000000000004      56.602000000000004
   297   1      16.171999999999997      54.580500000000001      56.602000000000004
   298   1      16.171999999999997      56.602000000000004      54.580500000000001
   299   1      14.150499999999994      54.580500000000001                 58.6235
   300   1      14.150499999999994      56.602000000000004      60.645000000000003
   301   1      16.171999999999997      54.580500000000001      60.645000000000003
   302   1      16.171999999999997      56.602000000000004                 58.6235
   303   1      14.150499999999994      54.580500000000001      62.666499999999999
   304   1      14.150499999999994      56.602000000000004      64.688000000000002
   305   1      16.171999999999997      54.580500000000001      64.688000000000002
   306   1      16.171999999999997      56.602000000000004      62.666499999999999
   307   1      14.150499999999994      54.580500000000001      66.709499999999991
   308   1      14.150499999999994      56.602000000000004      68.731000000000009
   309   1      16.171999999999997      54.580500000000001      68.731000000000009
   310   1      16.171999999999997      56.602000000000004      66.709499999999991
   311   1      14.150499999999994      54.580500000000001      70.752499999999998
   312   1      14.150499999999994      56.602000000000004      72.774000000000001
   313   1      16.171999999999997      54.580500000000001      72.774000000000001
   314   1      16.171999999999997      56.602000000000004      70.752499999999998
   315   1      14.150499999999994      54.580500000000001      74.795500000000004
   316   1      14.150499999999994      56.602000000000004      76.817000000000007
   317   1      16.171999999999997      54.580500000000001      76.817000000000007
   318   1      16.171999999999997      56.602000000000004      74.795500000000004
   319   1      16.171999999999997      56.602000000000004      78.838499999999996
   320   1      14.150499999999994      60.645000000000003      44.472999999999999
   321   1      16.171999999999997                 58.6235      44.472999999999999
   322   1      16.171999999999997      60.645000000000003      42.451499999999996
   323   1      14.150499999999994                 58.6235      46.494500000000002
   324   1      14.150499999999994      60.645000000000003      48.516000000000005
   325   1      16.171999999999997                 58.6235      48.516000000000005
   326   1      16.171999999999997      60.645000000000003      46.494500000000002
   327   1      14.150499999999994                 58.6235      50.537499999999994
   328   1      14.150499999999994      60.645000000000003      52.559000000000005
   329   1      16.171999999999997                 58.6235      52.559000000000005
   330   1      16.171999999999997      60.645000000000003      50.537499999999994
   331   1      14.150499999999994                 58.6235      54.580500000000001
   332   1      14.150499999999994      60.645000000000003      56.602000000000004
   333   1      16.171999999999997                 58.6235      56.602000000000004
   334   1      16.171999999999997      60.645000000000003      54.580500000000001
   335   1      14.150499999999994                 58.6235                 58.6235
   336   1      14.150499999999994      60.645000000000003      60.645000000000003
   337   1      16.171999999999997                 58.6235      60.645000000000003
   338   1      16.171999999999997      60.645000000000003                 58.6235
   339   1      14.150499999999994                 58.6235      62.666499999999999
   340   1      14.150499999999994      60.645000000000003      64.688000000000002
   341   1      16.171999999999997                 58.6235      64.688000000000002
   342   1      16.171999999999997      60.645000000000003      62.666499999999999
   343   1      14.150499999999994                 58.6235      66.709499999999991
   344   1      14.150499999999994      60.645000000000003      68.731000000000009
   345   1      16.171999999999997                 58.6235      68.731000000000009
   346   1      16.171999999999997      60.645000000000003      66.709499999999991
   347   1      14.150499999999994                 58.6235      70.752499999999998
   348   1      14.150499999999994      60.645000000000003      72.774000000000001
   349   1      16.171999999999997                 58.6235      72.774000000000001
   350   1      16.171999999999997      60.645000000000003      70.752499999999998
   351   1      14.150499999999994                 58.6235      74.795500000000004
   352   1      14.150499999999994      60.645000000000003      76.817000000000007
   353   1      16.171999999999997                 58.6235      76.817000000000007
   354   1      16.171999999999997      60.645000000000003      74.795500000000004
   355   1      14.150499999999994                 58.6235      78.838499999999996
   356   1      14.150499999999994      60.645000000000003      80.859999999999999
   357   1      16.171999999999997                 58.6235      80.859999999999999
   358   1      16.171999999999997      60.645000000000003      78.838499999999996