model_files/PtFe/PtFe_30000/PtFe_522/PtFe_522_fcc_30243_temp.data (written by ASE) 

30243 	 atoms 
2  atom types
0.0                      99  xlo xhi
0.0                      99  ylo yhi
0.0                      99  zlo zhi


Atoms 

     1   1      1.8799999999999957      43.239999999999995      48.880000000000003
     2   1      1.8799999999999957       45.11999999999999      46.999999999999993
     3   1      1.8799999999999957      46.999999999999993       45.11999999999999
     4   1      1.8799999999999957       45.11999999999999      50.759999999999998
     5   1      1.8799999999999957      46.999999999999993      48.880000000000003
     6   1      1.8799999999999957      46.999999999999993      52.640000000000001
     7   1      1.8799999999999957      48.880000000000003      43.239999999999995
     8   1      1.8799999999999957      48.880000000000003      46.999999999999993
     9   1      1.8799999999999957      50.759999999999998       45.11999999999999
    10   1      98.999999999999986      48.880000000000003      48.880000000000003
    11   1      1.8799999999999957      48.880000000000003      50.759999999999998
    12   1      1.8799999999999957      50.759999999999998      48.880000000000003
    13   1      1.8799999999999957      48.880000000000003      54.519999999999996
    14   1      1.8799999999999957      50.759999999999998      52.640000000000001
    15   1      1.8799999999999957      52.640000000000001      46.999999999999993
    16   1      1.8799999999999957      52.640000000000001      50.759999999999998
    17   1      1.8799999999999957      54.519999999999996      48.880000000000003
    18   1      5.6399999999999935      31.959999999999997      48.880000000000003
    19   1      5.6399999999999935      33.839999999999989      46.999999999999993
    20   1      5.6399999999999935      35.719999999999992       45.11999999999999
    21   1      5.6399999999999935      33.839999999999989      50.759999999999998
    22   1      5.6399999999999935      35.719999999999992      48.880000000000003
    23   1      5.6399999999999935      35.719999999999992      52.640000000000001
    24   1      5.6399999999999935      37.599999999999994      43.239999999999995
    25   1      5.6399999999999935      39.480000000000004      41.359999999999999
    26   1      3.7599999999999913      39.480000000000004      46.999999999999993
    27   1      5.6399999999999935      37.599999999999994      46.999999999999993
    28   1      5.6399999999999935      39.480000000000004       45.11999999999999
    29   1      3.7599999999999913      37.599999999999994      48.880000000000003
    30   1      3.7599999999999913      39.480000000000004      50.759999999999998
    31   1      5.6399999999999935      37.599999999999994      50.759999999999998
    32   1      5.6399999999999935      39.480000000000004      48.880000000000003
    33   1      5.6399999999999935      37.599999999999994      54.519999999999996
    34   1      5.6399999999999935      39.480000000000004      52.640000000000001
    35   1      5.6399999999999935      39.480000000000004      56.399999999999999
    36   1      5.6399999999999935      41.359999999999999      39.480000000000004
    37   1      5.6399999999999935      43.239999999999995      37.599999999999994
    38   1      3.7599999999999913      43.239999999999995      43.239999999999995
    39   1      5.6399999999999935      41.359999999999999      43.239999999999995
    40   1      5.6399999999999935      43.239999999999995      41.359999999999999
    41   1      3.7599999999999913      41.359999999999999       45.11999999999999
    42   1      3.7599999999999913      43.239999999999995      46.999999999999993
    43   1      5.6399999999999935      41.359999999999999      46.999999999999993
    44   1      5.6399999999999935      43.239999999999995       45.11999999999999
    45   1      3.7599999999999913      41.359999999999999      48.880000000000003
    46   1      3.7599999999999913      43.239999999999995      50.759999999999998
    47   1      5.6399999999999935      41.359999999999999      50.759999999999998
    48   1      5.6399999999999935      43.239999999999995      48.880000000000003
    49   1      3.7599999999999913      41.359999999999999      52.640000000000001
    50   1      3.7599999999999913      43.239999999999995      54.519999999999996
    51   1      5.6399999999999935      41.359999999999999      54.519999999999996
    52   1      5.6399999999999935      43.239999999999995      52.640000000000001
    53   1      5.6399999999999935      41.359999999999999      58.280000000000001
    54   1      5.6399999999999935      43.239999999999995      56.399999999999999
    55   1      5.6399999999999935      43.239999999999995      60.159999999999989
    56   1      5.6399999999999935       45.11999999999999      35.719999999999992
    57   1      5.6399999999999935      46.999999999999993      33.839999999999989
    58   1      3.7599999999999913      46.999999999999993      39.480000000000004
    59   1      5.6399999999999935       45.11999999999999      39.480000000000004
    60   1      5.6399999999999935      46.999999999999993      37.599999999999994
    61   1      3.7599999999999913       45.11999999999999      41.359999999999999
    62   1      3.7599999999999913      46.999999999999993      43.239999999999995
    63   1      5.6399999999999935       45.11999999999999      43.239999999999995
    64   1      5.6399999999999935      46.999999999999993      41.359999999999999
    65   1      3.7599999999999913       45.11999999999999       45.11999999999999
    66   1      3.7599999999999913      46.999999999999993      46.999999999999993
    67   1      5.6399999999999935       45.11999999999999      46.999999999999993
    68   1      5.6399999999999935      46.999999999999993       45.11999999999999
    69   1      3.7599999999999913       45.11999999999999      48.880000000000003
    70   1      3.7599999999999913      46.999999999999993      50.759999999999998
    71   1      5.6399999999999935       45.11999999999999      50.759999999999998
    72   1      5.6399999999999935      46.999999999999993      48.880000000000003
    73   1      3.7599999999999913       45.11999999999999      52.640000000000001
    74   1      3.7599999999999913      46.999999999999993      54.519999999999996
    75   1      5.6399999999999935       45.11999999999999      54.519999999999996
    76   1      5.6399999999999935      46.999999999999993      52.640000000000001
    77   1      3.7599999999999913       45.11999999999999      56.399999999999999
    78   1      3.7599999999999913      46.999999999999993      58.280000000000001
    79   1      5.6399999999999935       45.11999999999999      58.280000000000001
    80   1      5.6399999999999935      46.999999999999993      56.399999999999999
    81   1      5.6399999999999935       45.11999999999999      62.039999999999992
    82   1      5.6399999999999935      46.999999999999993      60.159999999999989
    83   1      5.6399999999999935      46.999999999999993      63.919999999999995
    84   1      5.6399999999999935      48.880000000000003      31.959999999999997
    85   1      5.6399999999999935      48.880000000000003      35.719999999999992
    86   1      5.6399999999999935      50.759999999999998      33.839999999999989
    87   1      3.7599999999999913      48.880000000000003      37.599999999999994
    88   1      3.7599999999999913      50.759999999999998      39.480000000000004
    89   1      5.6399999999999935      48.880000000000003      39.480000000000004
    90   1      5.6399999999999935      50.759999999999998      37.599999999999994
    91   1      3.7599999999999913      48.880000000000003      41.359999999999999
    92   1      3.7599999999999913      50.759999999999998      43.239999999999995
    93   1      5.6399999999999935      48.880000000000003      43.239999999999995
    94   1      5.6399999999999935      50.759999999999998      41.359999999999999
    95   1      3.7599999999999913      48.880000000000003       45.11999999999999
    96   1      3.7599999999999913      50.759999999999998      46.999999999999993
    97   1      5.6399999999999935      48.880000000000003      46.999999999999993
    98   1      5.6399999999999935      50.759999999999998       45.11999999999999
    99   1      3.7599999999999913      48.880000000000003      48.880000000000003
   100   1      3.7599999999999913      50.759999999999998      50.759999999999998
   101   1      5.6399999999999935      48.880000000000003      50.759999999999998
   102   1      5.6399999999999935      50.759999999999998      48.880000000000003
   103   1      3.7599999999999913      48.880000000000003      52.640000000000001
   104   1      3.7599999999999913      50.759999999999998      54.519999999999996
   105   1      5.6399999999999935      48.880000000000003      54.519999999999996
   106   1      5.6399999999999935      50.759999999999998      52.640000000000001
   107   1      3.7599999999999913      48.880000000000003      56.399999999999999
   108   1      3.7599999999999913      50.759999999999998      58.280000000000001
   109   1      5.6399999999999935      48.880000000000003      58.280000000000001
   110   1      5.6399999999999935      50.759999999999998      56.399999999999999
   111   1      3.7599999999999913      48.880000000000003      60.159999999999989
   112   1      5.6399999999999935      48.880000000000003      62.039999999999992
   113   1      5.6399999999999935      50.759999999999998      60.159999999999989
   114   1      5.6399999999999935      48.880000000000003      65.799999999999983
   115   1      5.6399999999999935      50.759999999999998      63.919999999999995
   116   1      5.6399999999999935      52.640000000000001      35.719999999999992
   117   1      5.6399999999999935      52.640000000000001      39.480000000000004
   118   1      5.6399999999999935      54.519999999999996      37.599999999999994
   119   1      3.7599999999999913      52.640000000000001      41.359999999999999
   120   1      3.7599999999999913      54.519999999999996      43.239999999999995
   121   1      5.6399999999999935      52.640000000000001      43.239999999999995
   122   1      5.6399999999999935      54.519999999999996      41.359999999999999
   123   1      3.7599999999999913      52.640000000000001       45.11999999999999
   124   1      3.7599999999999913      54.519999999999996      46.999999999999993
   125   1      5.6399999999999935      52.640000000000001      46.999999999999993
   126   1      5.6399999999999935      54.519999999999996       45.11999999999999
   127   1      3.7599999999999913      52.640000000000001      48.880000000000003
   128   1      3.7599999999999913      54.519999999999996      50.759999999999998
   129   1      5.6399999999999935      52.640000000000001      50.759999999999998
   130   1      5.6399999999999935      54.519999999999996      48.880000000000003
   131   1      3.7599999999999913      52.640000000000001      52.640000000000001
   132   1      3.7599999999999913      54.519999999999996      54.519999999999996
   133   1      5.6399999999999935      52.640000000000001      54.519999999999996
   134   1      5.6399999999999935      54.519999999999996      52.640000000000001
   135   1      3.7599999999999913      52.640000000000001      56.399999999999999
   136   1      5.6399999999999935      52.640000000000001      58.280000000000001
   137   1      5.6399999999999935      54.519999999999996      56.399999999999999
   138   1      5.6399999999999935      52.640000000000001      62.039999999999992
   139   1      5.6399999999999935      54.519999999999996      60.159999999999989
   140   1      5.6399999999999935      56.399999999999999      39.480000000000004
   141   1      5.6399999999999935      56.399999999999999      43.239999999999995
   142   1      5.6399999999999935      58.280000000000001      41.359999999999999
   143   1      3.7599999999999913      56.399999999999999       45.11999999999999
   144   1      3.7599999999999913      58.280000000000001      46.999999999999993
   145   1      5.6399999999999935      56.399999999999999      46.999999999999993
   146   1      5.6399999999999935      58.280000000000001       45.11999999999999
   147   1      3.7599999999999913      56.399999999999999      48.880000000000003
   148   1      3.7599999999999913      58.280000000000001      50.759999999999998
   149   1      5.6399999999999935      56.399999999999999      50.759999999999998
   150   1      5.6399999999999935      58.280000000000001      48.880000000000003
   151   1      3.7599999999999913      56.399999999999999      52.640000000000001
   152   1      5.6399999999999935      56.399999999999999      54.519999999999996
   153   1      5.6399999999999935      58.280000000000001      52.640000000000001
   154   1      5.6399999999999935      56.399999999999999      58.280000000000001
   155   1      5.6399999999999935      58.280000000000001      56.399999999999999
   156   1      5.6399999999999935      60.159999999999989      43.239999999999995
   157   1      5.6399999999999935      60.159999999999989      46.999999999999993
   158   1      5.6399999999999935      62.039999999999992       45.11999999999999
   159   1      3.7599999999999913      60.159999999999989      48.880000000000003
   160   1      5.6399999999999935      60.159999999999989      50.759999999999998
   161   1      5.6399999999999935      62.039999999999992      48.880000000000003
   162   1      5.6399999999999935      60.159999999999989      54.519999999999996
   163   1      5.6399999999999935      62.039999999999992      52.640000000000001
   164   1      5.6399999999999935      63.919999999999995      46.999999999999993
   165   1      5.6399999999999935      63.919999999999995      50.759999999999998
   166   1      5.6399999999999935      65.799999999999983      48.880000000000003
   167   1      9.3999999999999915      24.439999999999994      48.880000000000003
   168   1      9.3999999999999915      26.319999999999993      46.999999999999993
   169   1      9.3999999999999915      28.199999999999996       45.11999999999999
   170   1      9.3999999999999915      26.319999999999993      50.759999999999998
   171   1      9.3999999999999915      28.199999999999996      48.880000000000003
   172   1      9.3999999999999915      28.199999999999996      52.640000000000001
   173   1      9.3999999999999915      30.079999999999995      43.239999999999995
   174   1      9.3999999999999915      31.959999999999997      41.359999999999999
   175   1       7.519999999999996      31.959999999999997      46.999999999999993
   176   1      9.3999999999999915      30.079999999999995      46.999999999999993
   177   1      9.3999999999999915      31.959999999999997       45.11999999999999
   178   1       7.519999999999996      30.079999999999995      48.880000000000003
   179   1       7.519999999999996      31.959999999999997      50.759999999999998
   180   1      9.3999999999999915      30.079999999999995      50.759999999999998
   181   1      9.3999999999999915      31.959999999999997      48.880000000000003
   182   1      9.3999999999999915      30.079999999999995      54.519999999999996
   183   1      9.3999999999999915      31.959999999999997      52.640000000000001
   184   1      9.3999999999999915      31.959999999999997      56.399999999999999
   185   1      9.3999999999999915      33.839999999999989      39.480000000000004
   186   1      9.3999999999999915      35.719999999999992      37.599999999999994
   187   1       7.519999999999996      35.719999999999992      43.239999999999995
   188   1      9.3999999999999915      33.839999999999989      43.239999999999995
   189   1      9.3999999999999915      35.719999999999992      41.359999999999999
   190   1       7.519999999999996      33.839999999999989       45.11999999999999
   191   1       7.519999999999996      35.719999999999992      46.999999999999993
   192   1      9.3999999999999915      33.839999999999989      46.999999999999993
   193   1      9.3999999999999915      35.719999999999992       45.11999999999999
   194   1       7.519999999999996      33.839999999999989      48.880000000000003
   195   1       7.519999999999996      35.719999999999992      50.759999999999998
   196   1      9.3999999999999915      33.839999999999989      50.759999999999998
   197   1      9.3999999999999915      35.719999999999992      48.880000000000003
   198   1       7.519999999999996      33.839999999999989      52.640000000000001
   199   1       7.519999999999996      35.719999999999992      54.519999999999996
   200   1      9.3999999999999915      33.839999999999989      54.519999999999996
   201   1      9.3999999999999915      35.719999999999992      52.640000000000001
   202   1      9.3999999999999915      33.839999999999989      58.280000000000001
   203   1      9.3999999999999915      35.719999999999992      56.399999999999999
   204   1      9.3999999999999915      35.719999999999992      60.159999999999989
   205   1      9.3999999999999915      37.599999999999994      35.719999999999992
   206   1      9.3999999999999915      39.480000000000004      33.839999999999989
   207   1       7.519999999999996      39.480000000000004      39.480000000000004
   208   1      9.3999999999999915      37.599999999999994      39.480000000000004
   209   1      9.3999999999999915      39.480000000000004      37.599999999999994
   210   1       7.519999999999996      37.599999999999994      41.359999999999999
   211   1       7.519999999999996      39.480000000000004      43.239999999999995
   212   1      9.3999999999999915      37.599999999999994      43.239999999999995
   213   1      9.3999999999999915      39.480000000000004      41.359999999999999
   214   1       7.519999999999996      37.599999999999994       45.11999999999999
   215   1       7.519999999999996      39.480000000000004      46.999999999999993
   216   1      9.3999999999999915      37.599999999999994      46.999999999999993
   217   1      9.3999999999999915      39.480000000000004       45.11999999999999
   218   1       7.519999999999996      37.599999999999994      48.880000000000003
   219   1       7.519999999999996      39.480000000000004      50.759999999999998
   220   1      9.3999999999999915      37.599999999999994      50.759999999999998
   221   1      9.3999999999999915      39.480000000000004      48.880000000000003
   222   1       7.519999999999996      37.599999999999994      52.640000000000001
   223   1       7.519999999999996      39.480000000000004      54.519999999999996
   224   1      9.3999999999999915      37.599999999999994      54.519999999999996
   225   1      9.3999999999999915      39.480000000000004      52.640000000000001
   226   1       7.519999999999996      37.599999999999994      56.399999999999999
   227   1       7.519999999999996      39.480000000000004      58.280000000000001
   228   1      9.3999999999999915      37.599999999999994      58.280000000000001
   229   1      9.3999999999999915      39.480000000000004      56.399999999999999
   230   1      9.3999999999999915      37.599999999999994      62.039999999999992
   231   1      9.3999999999999915      39.480000000000004      60.159999999999989
   232   1      9.3999999999999915      39.480000000000004      63.919999999999995
   233   1      9.3999999999999915      41.359999999999999      31.959999999999997
   234   1      9.3999999999999915      43.239999999999995      30.079999999999995
   235   1       7.519999999999996      43.239999999999995      35.719999999999992
   236   1      9.3999999999999915      41.359999999999999      35.719999999999992
   237   1      9.3999999999999915      43.239999999999995      33.839999999999989
   238   1       7.519999999999996      41.359999999999999      37.599999999999994
   239   1       7.519999999999996      43.239999999999995      39.480000000000004
   240   1      9.3999999999999915      41.359999999999999      39.480000000000004
   241   1      9.3999999999999915      43.239999999999995      37.599999999999994
   242   1       7.519999999999996      41.359999999999999      41.359999999999999
   243   1       7.519999999999996      43.239999999999995      43.239999999999995
   244   1      9.3999999999999915      41.359999999999999      43.239999999999995
   245   1      9.3999999999999915      43.239999999999995      41.359999999999999
   246   1       7.519999999999996      41.359999999999999       45.11999999999999
   247   1       7.519999999999996      43.239999999999995      46.999999999999993
   248   1      9.3999999999999915      41.359999999999999      46.999999999999993
   249   1      9.3999999999999915      43.239999999999995       45.11999999999999
   250   1       7.519999999999996      41.359999999999999      48.880000000000003
   251   1       7.519999999999996      43.239999999999995      50.759999999999998
   252   1      9.3999999999999915      41.359999999999999      50.759999999999998
   253   1      9.3999999999999915      43.239999999999995      48.880000000000003
   254   1       7.519999999999996      41.359999999999999      52.640000000000001
   255   1       7.519999999999996      43.239999999999995      54.519999999999996
   256   1      9.3999999999999915      41.359999999999999      54.519999999999996
   257   1      9.3999999999999915      43.239999999999995      52.640000000000001
   258   1       7.519999999999996      41.359999999999999      56.399999999999999
   259   1       7.519999999999996      43.239999999999995      58.280000000000001
   260   1      9.3999999999999915      41.359999999999999      58.280000000000001
   261   1      9.3999999999999915      43.239999999999995      56.399999999999999
   262   1       7.519999999999996      41.359999999999999      60.159999999999989
   263   1       7.519999999999996      43.239999999999995      62.039999999999992
   264   1      9.3999999999999915      41.359999999999999      62.039999999999992
   265   1      9.3999999999999915      43.239999999999995      60.159999999999989
   266   1      9.3999999999999915      41.359999999999999      65.799999999999983
   267   1      9.3999999999999915      43.239999999999995      63.919999999999995
   268   1      9.3999999999999915      43.239999999999995      67.679999999999993
   269   1      9.3999999999999915       45.11999999999999      28.199999999999996
   270   1      9.3999999999999915      46.999999999999993      26.319999999999993
   271   1       7.519999999999996      46.999999999999993      31.959999999999997
   272   1      9.3999999999999915       45.11999999999999      31.959999999999997
   273   1      9.3999999999999915      46.999999999999993      30.079999999999995
   274   1       7.519999999999996       45.11999999999999      33.839999999999989
   275   1       7.519999999999996      46.999999999999993      35.719999999999992
   276   1      9.3999999999999915       45.11999999999999      35.719999999999992
   277   1      9.3999999999999915      46.999999999999993      33.839999999999989
   278   1       7.519999999999996       45.11999999999999      37.599999999999994
   279   1       7.519999999999996      46.999999999999993      39.480000000000004
   280   1      9.3999999999999915       45.11999999999999      39.480000000000004
   281   1      9.3999999999999915      46.999999999999993      37.599999999999994
   282   1       7.519999999999996       45.11999999999999      41.359999999999999
   283   1       7.519999999999996      46.999999999999993      43.239999999999995
   284   1      9.3999999999999915       45.11999999999999      43.239999999999995
   285   1      9.3999999999999915      46.999999999999993      41.359999999999999
   286   1       7.519999999999996       45.11999999999999       45.11999999999999
   287   1       7.519999999999996      46.999999999999993      46.999999999999993
   288   1      9.3999999999999915       45.11999999999999      46.999999999999993
   289   1      9.3999999999999915      46.999999999999993       45.11999999999999
   290   1       7.519999999999996       45.11999999999999      48.880000000000003
   291   1       7.519999999999996      46.999999999999993      50.759999999999998
   292   1      9.3999999999999915       45.11999999999999      50.759999999999998
   293   1      9.3999999999999915      46.999999999999993      48.880000000000003
   294   1       7.519999999999996       45.11999999999999      52.640000000000001
   295   1       7.519999999999996      46.999999999999993      54.519999999999996
   296   1      9.3999999999999915       45.11999999999999      54.519999999999996
   297   1      9.3999999999999915      46.999999999999993      52.640000000000001
   298   1       7.519999999999996       45.11999999999999      56.399999999999999
   299   1       7.519999999999996      46.999999999999993      58.280000000000001
   300   1      9.3999999999999915       45.11999999999999      58.280000000000001
   301   1      9.3999999999999915      46.999999999999993      56.399999999999999
   302   1       7.519999999999996       45.11999999999999      60.159999999999989
   303   1       7.519999999999996      46.999999999999993      62.039999999999992
   304   1      9.3999999999999915       45.11999999999999      62.039999999999992
   305   1      9.3999999999999915      46.999999999999993      60.159999999999989
   306   1       7.519999999999996       45.11999999999999      63.919999999999995
   307   1       7.519999999999996      46.999999999999993      65.799999999999983
   308   1      9.3999999999999915       45.11999999999999      65.799999999999983
   309   1      9.3999999999999915      46.999999999999993      63.919999999999995
   310   1      9.3999999999999915       45.11999999999999      69.560000000000002
   311   1      9.3999999999999915      46.999999999999993      67.679999999999993
   312   1      9.3999999999999915      46.999999999999993      71.439999999999984
   313   1      9.3999999999999915      48.880000000000003      24.439999999999994
   314   1      9.3999999999999915      48.880000000000003      28.199999999999996
   315   1      9.3999999999999915      50.759999999999998      26.319999999999993
   316   1       7.519999999999996      48.880000000000003      30.079999999999995
   317   1       7.519999999999996      50.759999999999998      31.959999999999997
   318   1      9.3999999999999915      48.880000000000003      31.959999999999997
   319   1      9.3999999999999915      50.759999999999998      30.079999999999995
   320   1       7.519999999999996      48.880000000000003      33.839999999999989
   321   1       7.519999999999996      50.759999999999998      35.719999999999992
   322   1      9.3999999999999915      48.880000000000003      35.719999999999992
   323   1      9.3999999999999915      50.759999999999998      33.839999999999989
   324   1       7.519999999999996      48.880000000000003      37.599999999999994
   325   1       7.519999999999996      50.759999999999998      39.480000000000004
   326   1      9.3999999999999915      48.880000000000003      39.480000000000004
   327   1      9.3999999999999915      50.759999999999998      37.599999999999994
   328   1       7.519999999999996      48.880000000000003      41.359999999999999
   329   1       7.519999999999996      50.759999999999998      43.239999999999995
   330   1      9.3999999999999915      48.880000000000003      43.239999999999995
   331   1      9.3999999999999915      50.759999999999998      41.359999999999999
   332   1       7.519999999999996      48.880000000000003       45.11999999999999
   333   1       7.519999999999996      50.759999999999998      46.999999999999993
   334   1      9.3999999999999915      48.880000000000003      46.999999999999993
   335   1      9.3999999999999915      50.759999999999998       45.11999999999999
   336   1       7.519999999999996      48.880000000000003      48.880000000000003
   337   1       7.519999999999996      50.759999999999998      50.759999999999998
   338   1      9.3999999999999915      48.880000000000003      50.759999999999998
   339   1      9.3999999999999915      50.759999999999998      48.880000000000003
   340   1       7.519999999999996      48.880000000000003      52.640000000000001
   341   1       7.519999999999996      50.759999999999998      54.519999999999996
   342   1      9.3999999999999915      48.880000000000003      54.519999999999996
   343   1      9.3999999999999915      50.759999999999998      52.640000000000001
   344   1       7.519999999999996      48.880000000000003      56.399999999999999
   345   1       7.519999999999996      50.759999999999998      58.280000000000001
   346   1      9.3999999999999915      48.880000000000003      58.280000000000001
   347   1      9.3999999999999915      50.759999999999998      56.399999999999999
   348   1       7.519999999999996      48.880000000000003      60.159999999999989
   349   1       7.519999999999996      50.759999999999998      62.039999999999992
   350   1      9.3999999999999915      48.880000000000003      62.039999999999992
   351   1      9.3999999999999915      50.759999999999998      60.159999999999989
   352   1       7.519999999999996      48.880000000000003      63.919999999999995
   353   1       7.519999999999996      50.759999999999998      65.799999999999983
   354   1      9.3999999999999915      48.880000000000003      65.799999999999983
   355   1      9.3999999999999915      50.759999999999998      63.919999999999995
   356   1       7.519999999999996      48.880000000000003      67.679999999999993
   357   1      9.3999999999999915      48.880000000000003      69.560000000000002
   358   1      9.3999999999999915      50.759999999999998      67.679999999999993