model_files/CuFeNi/CuFeNi_30000/CuFeNi_522/CuFeNi_522_fcc_30243_temp.data (written by ASE) 

30243 	 atoms 
3  atom types
0.0                      95  xlo xhi
0.0                      95  ylo yhi
0.0                      95  zlo zhi


Atoms 

     1   1      1.7899999999999849      41.169999999999987      46.539999999999992
     2   1      1.7899999999999849      42.959999999999987      44.749999999999986
     3   1      1.7899999999999849      44.749999999999986      42.959999999999987
     4   1      1.7899999999999849      42.959999999999987      48.329999999999991
     5   1      1.7899999999999849      44.749999999999986      46.539999999999992
     6   1      1.7899999999999849      44.749999999999986       50.11999999999999
     7   1      1.7899999999999849      46.539999999999992      41.169999999999987
     8   1      1.7899999999999849      46.539999999999992      44.749999999999986
     9   1      1.7899999999999849      48.329999999999991      42.959999999999987
    10   1      94.999999999999986      46.539999999999992      46.539999999999992
    11   1      1.7899999999999849      46.539999999999992      48.329999999999991
    12   1      1.7899999999999849      48.329999999999991      46.539999999999992
    13   1      1.7899999999999849      46.539999999999992      51.909999999999989
    14   1      1.7899999999999849      48.329999999999991       50.11999999999999
    15   1      1.7899999999999849       50.11999999999999      44.749999999999986
    16   1      1.7899999999999849       50.11999999999999      48.329999999999991
    17   1      1.7899999999999849      51.909999999999989      46.539999999999992
    18   1      5.3699999999999903      30.429999999999986      46.539999999999992
    19   1      5.3699999999999903      32.219999999999985      44.749999999999986
    20   1      5.3699999999999903      34.009999999999984      42.959999999999987
    21   1      5.3699999999999903      32.219999999999985      48.329999999999991
    22   1      5.3699999999999903      34.009999999999984      46.539999999999992
    23   1      5.3699999999999903      34.009999999999984       50.11999999999999
    24   1      5.3699999999999903       35.79999999999999      41.169999999999987
    25   1      5.3699999999999903      37.589999999999989      39.379999999999988
    26   1      3.5799999999999836      37.589999999999989      44.749999999999986
    27   1      5.3699999999999903       35.79999999999999      44.749999999999986
    28   1      5.3699999999999903      37.589999999999989      42.959999999999987
    29   1      3.5799999999999836       35.79999999999999      46.539999999999992
    30   1      3.5799999999999836      37.589999999999989      48.329999999999991
    31   1      5.3699999999999903       35.79999999999999      48.329999999999991
    32   1      5.3699999999999903      37.589999999999989      46.539999999999992
    33   1      5.3699999999999903       35.79999999999999      51.909999999999989
    34   1      5.3699999999999903      37.589999999999989       50.11999999999999
    35   1      5.3699999999999903      37.589999999999989      53.699999999999989
    36   1      5.3699999999999903      39.379999999999988      37.589999999999989
    37   1      5.3699999999999903      41.169999999999987       35.79999999999999
    38   1      3.5799999999999836      41.169999999999987      41.169999999999987
    39   1      5.3699999999999903      39.379999999999988      41.169999999999987
    40   1      5.3699999999999903      41.169999999999987      39.379999999999988
    41   1      3.5799999999999836      39.379999999999988      42.959999999999987
    42   1      3.5799999999999836      41.169999999999987      44.749999999999986
    43   1      5.3699999999999903      39.379999999999988      44.749999999999986
    44   1      5.3699999999999903      41.169999999999987      42.959999999999987
    45   1      3.5799999999999836      39.379999999999988      46.539999999999992
    46   1      3.5799999999999836      41.169999999999987      48.329999999999991
    47   1      5.3699999999999903      39.379999999999988      48.329999999999991
    48   1      5.3699999999999903      41.169999999999987      46.539999999999992
    49   1      3.5799999999999836      39.379999999999988       50.11999999999999
    50   1      3.5799999999999836      41.169999999999987      51.909999999999989
    51   1      5.3699999999999903      39.379999999999988      51.909999999999989
    52   1      5.3699999999999903      41.169999999999987       50.11999999999999
    53   1      5.3699999999999903      39.379999999999988      55.489999999999988
    54   1      5.3699999999999903      41.169999999999987      53.699999999999989
    55   1      5.3699999999999903      41.169999999999987       57.27999999999998
    56   1      5.3699999999999903      42.959999999999987      34.009999999999984
    57   1      5.3699999999999903      44.749999999999986      32.219999999999985
    58   1      3.5799999999999836      44.749999999999986      37.589999999999989
    59   1      5.3699999999999903      42.959999999999987      37.589999999999989
    60   1      5.3699999999999903      44.749999999999986       35.79999999999999
    61   1      3.5799999999999836      42.959999999999987      39.379999999999988
    62   1      3.5799999999999836      44.749999999999986      41.169999999999987
    63   1      5.3699999999999903      42.959999999999987      41.169999999999987
    64   1      5.3699999999999903      44.749999999999986      39.379999999999988
    65   1      3.5799999999999836      42.959999999999987      42.959999999999987
    66   1      3.5799999999999836      44.749999999999986      44.749999999999986
    67   1      5.3699999999999903      42.959999999999987      44.749999999999986
    68   1      5.3699999999999903      44.749999999999986      42.959999999999987
    69   1      3.5799999999999836      42.959999999999987      46.539999999999992
    70   1      3.5799999999999836      44.749999999999986      48.329999999999991
    71   1      5.3699999999999903      42.959999999999987      48.329999999999991
    72   1      5.3699999999999903      44.749999999999986      46.539999999999992
    73   1      3.5799999999999836      42.959999999999987       50.11999999999999
    74   1      3.5799999999999836      44.749999999999986      51.909999999999989
    75   1      5.3699999999999903      42.959999999999987      51.909999999999989
    76   1      5.3699999999999903      44.749999999999986       50.11999999999999
    77   1      3.5799999999999836      42.959999999999987      53.699999999999989
    78   1      3.5799999999999836      44.749999999999986      55.489999999999988
    79   1      5.3699999999999903      42.959999999999987      55.489999999999988
    80   1      5.3699999999999903      44.749999999999986      53.699999999999989
    81   1      5.3699999999999903      42.959999999999987      59.069999999999979
    82   1      5.3699999999999903      44.749999999999986       57.27999999999998
    83   1      5.3699999999999903      44.749999999999986      60.859999999999978
    84   1      5.3699999999999903      46.539999999999992      30.429999999999986
    85   1      5.3699999999999903      46.539999999999992      34.009999999999984
    86   1      5.3699999999999903      48.329999999999991      32.219999999999985
    87   1      3.5799999999999836      46.539999999999992       35.79999999999999
    88   1      3.5799999999999836      48.329999999999991      37.589999999999989
    89   1      5.3699999999999903      46.539999999999992      37.589999999999989
    90   1      5.3699999999999903      48.329999999999991       35.79999999999999
    91   1      3.5799999999999836      46.539999999999992      39.379999999999988
    92   1      3.5799999999999836      48.329999999999991      41.169999999999987
    93   1      5.3699999999999903      46.539999999999992      41.169999999999987
    94   1      5.3699999999999903      48.329999999999991      39.379999999999988
    95   1      3.5799999999999836      46.539999999999992      42.959999999999987
    96   1      3.5799999999999836      48.329999999999991      44.749999999999986
    97   1      5.3699999999999903      46.539999999999992      44.749999999999986
    98   1      5.3699999999999903      48.329999999999991      42.959999999999987
    99   1      3.5799999999999836      46.539999999999992      46.539999999999992
   100   1      3.5799999999999836      48.329999999999991      48.329999999999991
   101   1      5.3699999999999903      46.539999999999992      48.329999999999991
   102   1      5.3699999999999903      48.329999999999991      46.539999999999992
   103   1      3.5799999999999836      46.539999999999992       50.11999999999999
   104   1      3.5799999999999836      48.329999999999991      51.909999999999989
   105   1      5.3699999999999903      46.539999999999992      51.909999999999989
   106   1      5.3699999999999903      48.329999999999991       50.11999999999999
   107   1      3.5799999999999836      46.539999999999992      53.699999999999989
   108   1      3.5799999999999836      48.329999999999991      55.489999999999988
   109   1      5.3699999999999903      46.539999999999992      55.489999999999988
   110   1      5.3699999999999903      48.329999999999991      53.699999999999989
   111   1      3.5799999999999836      46.539999999999992       57.27999999999998
   112   1      5.3699999999999903      46.539999999999992      59.069999999999979
   113   1      5.3699999999999903      48.329999999999991       57.27999999999998
   114   1      5.3699999999999903      46.539999999999992      62.649999999999991
   115   1      5.3699999999999903      48.329999999999991      60.859999999999978
   116   1      5.3699999999999903       50.11999999999999      34.009999999999984
   117   1      5.3699999999999903       50.11999999999999      37.589999999999989
   118   1      5.3699999999999903      51.909999999999989       35.79999999999999
   119   1      3.5799999999999836       50.11999999999999      39.379999999999988
   120   1      3.5799999999999836      51.909999999999989      41.169999999999987
   121   1      5.3699999999999903       50.11999999999999      41.169999999999987
   122   1      5.3699999999999903      51.909999999999989      39.379999999999988
   123   1      3.5799999999999836       50.11999999999999      42.959999999999987
   124   1      3.5799999999999836      51.909999999999989      44.749999999999986
   125   1      5.3699999999999903       50.11999999999999      44.749999999999986
   126   1      5.3699999999999903      51.909999999999989      42.959999999999987
   127   1      3.5799999999999836       50.11999999999999      46.539999999999992
   128   1      3.5799999999999836      51.909999999999989      48.329999999999991
   129   1      5.3699999999999903       50.11999999999999      48.329999999999991
   130   1      5.3699999999999903      51.909999999999989      46.539999999999992
   131   1      3.5799999999999836       50.11999999999999       50.11999999999999
   132   1      3.5799999999999836      51.909999999999989      51.909999999999989
   133   1      5.3699999999999903       50.11999999999999      51.909999999999989
   134   1      5.3699999999999903      51.909999999999989       50.11999999999999
   135   1      3.5799999999999836       50.11999999999999      53.699999999999989
   136   1      5.3699999999999903       50.11999999999999      55.489999999999988
   137   1      5.3699999999999903      51.909999999999989      53.699999999999989
   138   1      5.3699999999999903       50.11999999999999      59.069999999999979
   139   1      5.3699999999999903      51.909999999999989       57.27999999999998
   140   1      5.3699999999999903      53.699999999999989      37.589999999999989
   141   1      5.3699999999999903      53.699999999999989      41.169999999999987
   142   1      5.3699999999999903      55.489999999999988      39.379999999999988
   143   1      3.5799999999999836      53.699999999999989      42.959999999999987
   144   1      3.5799999999999836      55.489999999999988      44.749999999999986
   145   1      5.3699999999999903      53.699999999999989      44.749999999999986
   146   1      5.3699999999999903      55.489999999999988      42.959999999999987
   147   1      3.5799999999999836      53.699999999999989      46.539999999999992
   148   1      3.5799999999999836      55.489999999999988      48.329999999999991
   149   1      5.3699999999999903      53.699999999999989      48.329999999999991
   150   1      5.3699999999999903      55.489999999999988      46.539999999999992
   151   1      3.5799999999999836      53.699999999999989       50.11999999999999
   152   1      5.3699999999999903      53.699999999999989      51.909999999999989
   153   1      5.3699999999999903      55.489999999999988       50.11999999999999
   154   1      5.3699999999999903      53.699999999999989      55.489999999999988
   155   1      5.3699999999999903      55.489999999999988      53.699999999999989
   156   1      5.3699999999999903       57.27999999999998      41.169999999999987
   157   1      5.3699999999999903       57.27999999999998      44.749999999999986
   158   1      5.3699999999999903      59.069999999999979      42.959999999999987
   159   1      3.5799999999999836       57.27999999999998      46.539999999999992
   160   1      5.3699999999999903       57.27999999999998      48.329999999999991
   161   1      5.3699999999999903      59.069999999999979      46.539999999999992
   162   1      5.3699999999999903       57.27999999999998      51.909999999999989
   163   1      5.3699999999999903      59.069999999999979       50.11999999999999
   164   1      5.3699999999999903      60.859999999999978      44.749999999999986
   165   1      5.3699999999999903      60.859999999999978      48.329999999999991
   166   1      5.3699999999999903      62.649999999999991      46.539999999999992
   167   1      8.9499999999999886      23.269999999999989      46.539999999999992
   168   1      8.9499999999999886      25.059999999999988      44.749999999999986
   169   1      8.9499999999999886      26.849999999999987      42.959999999999987
   170   1      8.9499999999999886      25.059999999999988      48.329999999999991
   171   1      8.9499999999999886      26.849999999999987      46.539999999999992
   172   1      8.9499999999999886      26.849999999999987       50.11999999999999
   173   1      8.9499999999999886      28.639999999999986      41.169999999999987
   174   1      8.9499999999999886      30.429999999999986      39.379999999999988
   175   1      7.1599999999999886      30.429999999999986      44.749999999999986
   176   1      8.9499999999999886      28.639999999999986      44.749999999999986
   177   1      8.9499999999999886      30.429999999999986      42.959999999999987
   178   1      7.1599999999999886      28.639999999999986      46.539999999999992
   179   1      7.1599999999999886      30.429999999999986      48.329999999999991
   180   1      8.9499999999999886      28.639999999999986      48.329999999999991
   181   1      8.9499999999999886      30.429999999999986      46.539999999999992
   182   1      8.9499999999999886      28.639999999999986      51.909999999999989
   183   1      8.9499999999999886      30.429999999999986       50.11999999999999
   184   1      8.9499999999999886      30.429999999999986      53.699999999999989
   185   1      8.9499999999999886      32.219999999999985      37.589999999999989
   186   1      8.9499999999999886      34.009999999999984       35.79999999999999
   187   1      7.1599999999999886      34.009999999999984      41.169999999999987
   188   1      8.9499999999999886      32.219999999999985      41.169999999999987
   189   1      8.9499999999999886      34.009999999999984      39.379999999999988
   190   1      7.1599999999999886      32.219999999999985      42.959999999999987
   191   1      7.1599999999999886      34.009999999999984      44.749999999999986
   192   1      8.9499999999999886      32.219999999999985      44.749999999999986
   193   1      8.9499999999999886      34.009999999999984      42.959999999999987
   194   1      7.1599999999999886      32.219999999999985      46.539999999999992
   195   1      7.1599999999999886      34.009999999999984      48.329999999999991
   196   1      8.9499999999999886      32.219999999999985      48.329999999999991
   197   1      8.9499999999999886      34.009999999999984      46.539999999999992
   198   1      7.1599999999999886      32.219999999999985       50.11999999999999
   199   1      7.1599999999999886      34.009999999999984      51.909999999999989
   200   1      8.9499999999999886      32.219999999999985      51.909999999999989
   201   1      8.9499999999999886      34.009999999999984       50.11999999999999
   202   1      8.9499999999999886      32.219999999999985      55.489999999999988
   203   1      8.9499999999999886      34.009999999999984      53.699999999999989
   204   1      8.9499999999999886      34.009999999999984       57.27999999999998
   205   1      8.9499999999999886       35.79999999999999      34.009999999999984
   206   1      8.9499999999999886      37.589999999999989      32.219999999999985
   207   1      7.1599999999999886      37.589999999999989      37.589999999999989
   208   1      8.9499999999999886       35.79999999999999      37.589999999999989
   209   1      8.9499999999999886      37.589999999999989       35.79999999999999
   210   1      7.1599999999999886       35.79999999999999      39.379999999999988
   211   1      7.1599999999999886      37.589999999999989      41.169999999999987
   212   1      8.9499999999999886       35.79999999999999      41.169999999999987
   213   1      8.9499999999999886      37.589999999999989      39.379999999999988
   214   1      7.1599999999999886       35.79999999999999      42.959999999999987
   215   1      7.1599999999999886      37.589999999999989      44.749999999999986
   216   1      8.9499999999999886       35.79999999999999      44.749999999999986
   217   1      8.9499999999999886      37.589999999999989      42.959999999999987
   218   1      7.1599999999999886       35.79999999999999      46.539999999999992
   219   1      7.1599999999999886      37.589999999999989      48.329999999999991
   220   1      8.9499999999999886       35.79999999999999      48.329999999999991
   221   1      8.9499999999999886      37.589999999999989      46.539999999999992
   222   1      7.1599999999999886       35.79999999999999       50.11999999999999
   223   1      7.1599999999999886      37.589999999999989      51.909999999999989
   224   1      8.9499999999999886       35.79999999999999      51.909999999999989
   225   1      8.9499999999999886      37.589999999999989       50.11999999999999
   226   1      7.1599999999999886       35.79999999999999      53.699999999999989
   227   1      7.1599999999999886      37.589999999999989      55.489999999999988
   228   1      8.9499999999999886       35.79999999999999      55.489999999999988
   229   1      8.9499999999999886      37.589999999999989      53.699999999999989
   230   1      8.9499999999999886       35.79999999999999      59.069999999999979
   231   1      8.9499999999999886      37.589999999999989       57.27999999999998
   232   1      8.9499999999999886      37.589999999999989      60.859999999999978
   233   1      8.9499999999999886      39.379999999999988      30.429999999999986
   234   1      8.9499999999999886      41.169999999999987      28.639999999999986
   235   1      7.1599999999999886      41.169999999999987      34.009999999999984
   236   1      8.9499999999999886      39.379999999999988      34.009999999999984
   237   1      8.9499999999999886      41.169999999999987      32.219999999999985
   238   1      7.1599999999999886      39.379999999999988       35.79999999999999
   239   1      7.1599999999999886      41.169999999999987      37.589999999999989
   240   1      8.9499999999999886      39.379999999999988      37.589999999999989
   241   1      8.9499999999999886      41.169999999999987       35.79999999999999
   242   1      7.1599999999999886      39.379999999999988      39.379999999999988
   243   1      7.1599999999999886      41.169999999999987      41.169999999999987
   244   1      8.9499999999999886      39.379999999999988      41.169999999999987
   245   1      8.9499999999999886      41.169999999999987      39.379999999999988
   246   1      7.1599999999999886      39.379999999999988      42.959999999999987
   247   1      7.1599999999999886      41.169999999999987      44.749999999999986
   248   1      8.9499999999999886      39.379999999999988      44.749999999999986
   249   1      8.9499999999999886      41.169999999999987      42.959999999999987
   250   1      7.1599999999999886      39.379999999999988      46.539999999999992
   251   1      7.1599999999999886      41.169999999999987      48.329999999999991
   252   1      8.9499999999999886      39.379999999999988      48.329999999999991
   253   1      8.9499999999999886      41.169999999999987      46.539999999999992
   254   1      7.1599999999999886      39.379999999999988       50.11999999999999
   255   1      7.1599999999999886      41.169999999999987      51.909999999999989
   256   1      8.9499999999999886      39.379999999999988      51.909999999999989
   257   1      8.9499999999999886      41.169999999999987       50.11999999999999
   258   1      7.1599999999999886      39.379999999999988      53.699999999999989
   259   1      7.1599999999999886      41.169999999999987      55.489999999999988
   260   1      8.9499999999999886      39.379999999999988      55.489999999999988
   261   1      8.9499999999999886      41.169999999999987      53.699999999999989
   262   1      7.1599999999999886      39.379999999999988       57.27999999999998
   263   1      7.1599999999999886      41.169999999999987      59.069999999999979
   264   1      8.9499999999999886      39.379999999999988      59.069999999999979
   265   1      8.9499999999999886      41.169999999999987       57.27999999999998
   266   1      8.9499999999999886      39.379999999999988      62.649999999999991
   267   1      8.9499999999999886      41.169999999999987      60.859999999999978
   268   1      8.9499999999999886      41.169999999999987      64.439999999999984
   269   1      8.9499999999999886      42.959999999999987      26.849999999999987
   270   1      8.9499999999999886      44.749999999999986      25.059999999999988
   271   1      7.1599999999999886      44.749999999999986      30.429999999999986
   272   1      8.9499999999999886      42.959999999999987      30.429999999999986
   273   1      8.9499999999999886      44.749999999999986      28.639999999999986
   274   1      7.1599999999999886      42.959999999999987      32.219999999999985
   275   1      7.1599999999999886      44.749999999999986      34.009999999999984
   276   1      8.9499999999999886      42.959999999999987      34.009999999999984
   277   1      8.9499999999999886      44.749999999999986      32.219999999999985
   278   1      7.1599999999999886      42.959999999999987       35.79999999999999
   279   1      7.1599999999999886      44.749999999999986      37.589999999999989
   280   1      8.9499999999999886      42.959999999999987      37.589999999999989
   281   1      8.9499999999999886      44.749999999999986       35.79999999999999
   282   1      7.1599999999999886      42.959999999999987      39.379999999999988
   283   1      7.1599999999999886      44.749999999999986      41.169999999999987
   284   1      8.9499999999999886      42.959999999999987      41.169999999999987
   285   1      8.9499999999999886      44.749999999999986      39.379999999999988
   286   1      7.1599999999999886      42.959999999999987      42.959999999999987
   287   1      7.1599999999999886      44.749999999999986      44.749999999999986
   288   1      8.9499999999999886      42.959999999999987      44.749999999999986
   289   1      8.9499999999999886      44.749999999999986      42.959999999999987
   290   1      7.1599999999999886      42.959999999999987      46.539999999999992
   291   1      7.1599999999999886      44.749999999999986      48.329999999999991
   292   1      8.9499999999999886      42.959999999999987      48.329999999999991
   293   1      8.9499999999999886      44.749999999999986      46.539999999999992
   294   1      7.1599999999999886      42.959999999999987       50.11999999999999
   295   1      7.1599999999999886      44.749999999999986      51.909999999999989
   296   1      8.9499999999999886      42.959999999999987      51.909999999999989
   297   1      8.9499999999999886      44.749999999999986       50.11999999999999
   298   1      7.1599999999999886      42.959999999999987      53.699999999999989
   299   1      7.1599999999999886      44.749999999999986      55.489999999999988
   300   1      8.9499999999999886      42.959999999999987      55.489999999999988
   301   1      8.9499999999999886      44.749999999999986      53.699999999999989
   302   1      7.1599999999999886      42.959999999999987       57.27999999999998
   303   1      7.1599999999999886      44.749999999999986      59.069999999999979
   304   1      8.9499999999999886      42.959999999999987      59.069999999999979
   305   1      8.9499999999999886      44.749999999999986       57.27999999999998
   306   1      7.1599999999999886      42.959999999999987      60.859999999999978
   307   1      7.1599999999999886      44.749999999999986      62.649999999999991
   308   1      8.9499999999999886      42.959999999999987      62.649999999999991
   309   1      8.9499999999999886      44.749999999999986      60.859999999999978
   310   1      8.9499999999999886      42.959999999999987       66.22999999999999
   311   1      8.9499999999999886      44.749999999999986      64.439999999999984
   312   1      8.9499999999999886      44.749999999999986      68.019999999999982
   313   1      8.9499999999999886      46.539999999999992      23.269999999999989
   314   1      8.9499999999999886      46.539999999999992      26.849999999999987
   315   1      8.9499999999999886      48.329999999999991      25.059999999999988
   316   1      7.1599999999999886      46.539999999999992      28.639999999999986
   317   1      7.1599999999999886      48.329999999999991      30.429999999999986
   318   1      8.9499999999999886      46.539999999999992      30.429999999999986
   319   1      8.9499999999999886      48.329999999999991      28.639999999999986
   320   1      7.1599999999999886      46.539999999999992      32.219999999999985
   321   1      7.1599999999999886      48.329999999999991      34.009999999999984
   322   1      8.9499999999999886      46.539999999999992      34.009999999999984
   323   1      8.9499999999999886      48.329999999999991      32.219999999999985
   324   1      7.1599999999999886      46.539999999999992       35.79999999999999
   325   1      7.1599999999999886      48.329999999999991      37.589999999999989
   326   1      8.9499999999999886      46.539999999999992      37.589999999999989
   327   1      8.9499999999999886      48.329999999999991       35.79999999999999
   328   1      7.1599999999999886      46.539999999999992      39.379999999999988
   329   1      7.1599999999999886      48.329999999999991      41.169999999999987
   330   1      8.9499999999999886      46.539999999999992      41.169999999999987
   331   1      8.9499999999999886      48.329999999999991      39.379999999999988
   332   1      7.1599999999999886      46.539999999999992      42.959999999999987
   333   1      7.1599999999999886      48.329999999999991      44.749999999999986
   334   1      8.9499999999999886      46.539999999999992      44.749999999999986
   335   1      8.9499999999999886      48.329999999999991      42.959999999999987
   336   1      7.1599999999999886      46.539999999999992      46.539999999999992
   337   1      7.1599999999999886      48.329999999999991      48.329999999999991
   338   1      8.9499999999999886      46.539999999999992      48.329999999999991
   339   1      8.9499999999999886      48.329999999999991      46.539999999999992
   340   1      7.1599999999999886      46.539999999999992       50.11999999999999
   341   1      7.1599999999999886      48.329999999999991      51.909999999999989
   342   1      8.9499999999999886      46.539999999999992      51.909999999999989
   343   1      8.9499999999999886      48.329999999999991       50.11999999999999
   344   1      7.1599999999999886      46.539999999999992      53.699999999999989
   345   1      7.1599999999999886      48.329999999999991      55.489999999999988
   346   1      8.9499999999999886      46.539999999999992      55.489999999999988
   347   1      8.9499999999999886      48.329999999999991      53.699999999999989
   348   1      7.1599999999999886      46.539999999999992       57.27999999999998
   349   1      7.1599999999999886      48.329999999999991      59.069999999999979
   350   1      8.9499999999999886      46.539999999999992      59.069999999999979
   351   1      8.9499999999999886      48.329999999999991       57.27999999999998
   352   1      7.1599999999999886      46.539999999999992      60.859999999999978
   353   1      7.1599999999999886      48.329999999999991      62.649999999999991
   354   1      8.9499999999999886      46.539999999999992      62.649999999999991
   355   1      8.9499999999999886      48.329999999999991      60.859999999999978
   356   1      7.1599999999999886      46.539999999999992      64.439999999999984
   357   1      8.9499999999999886      46.539999999999992       66.22999999999999
   358   1      8.9499999999999886      48.329999999999991      64.439999999999984