model_files/Au/Au_30000/Au_432/data.Au_432_fcc_29911 (written by ASE) 

29911 	 atoms 
1  atom types
0.0                     122  xlo xhi
0.0                     122  ylo yhi
0.0                     122  zlo zhi


Atoms 

     1   1      2.0399999999999991      59.160000000000004       61.20000000000001
     2   1      2.0399999999999991       61.20000000000001      59.160000000000004
     3   1                       0       61.20000000000001       61.20000000000001
     4   1      2.0399999999999991       61.20000000000001      63.240000000000016
     5   1      2.0399999999999991      63.240000000000016       61.20000000000001
     6   1      6.1200000000000045                      51       61.20000000000001
     7   1      4.0799999999999983      55.080000000000013      59.160000000000004
     8   1      6.1200000000000045      53.040000000000006      59.160000000000004
     9   1      6.1200000000000045      55.080000000000013      57.120000000000012
    10   1      4.0799999999999983      55.080000000000013      63.240000000000016
    11   1      6.1200000000000045      53.040000000000006      63.240000000000016
    12   1      6.1200000000000045      55.080000000000013       61.20000000000001
    13   1      6.1200000000000045      55.080000000000013      65.280000000000001
    14   1      4.0799999999999983      59.160000000000004      55.080000000000013
    15   1      6.1200000000000045      57.120000000000012      55.080000000000013
    16   1      6.1200000000000045      59.160000000000004      53.040000000000006
    17   1      4.0799999999999983      57.120000000000012      57.120000000000012
    18   1      4.0799999999999983      59.160000000000004      59.160000000000004
    19   1      6.1200000000000045      57.120000000000012      59.160000000000004
    20   1      6.1200000000000045      59.160000000000004      57.120000000000012
    21   1      4.0799999999999983      57.120000000000012       61.20000000000001
    22   1      4.0799999999999983      59.160000000000004      63.240000000000016
    23   1      6.1200000000000045      57.120000000000012      63.240000000000016
    24   1      6.1200000000000045      59.160000000000004       61.20000000000001
    25   1      4.0799999999999983      57.120000000000012      65.280000000000001
    26   1      4.0799999999999983      59.160000000000004      67.320000000000007
    27   1      6.1200000000000045      57.120000000000012      67.320000000000007
    28   1      6.1200000000000045      59.160000000000004      65.280000000000001
    29   1      6.1200000000000045      59.160000000000004      69.359999999999999
    30   1      6.1200000000000045       61.20000000000001                      51
    31   1      4.0799999999999983      63.240000000000016      55.080000000000013
    32   1      6.1200000000000045       61.20000000000001      55.080000000000013
    33   1      6.1200000000000045      63.240000000000016      53.040000000000006
    34   1      4.0799999999999983       61.20000000000001      57.120000000000012
    35   1      4.0799999999999983      63.240000000000016      59.160000000000004
    36   1      6.1200000000000045       61.20000000000001      59.160000000000004
    37   1      6.1200000000000045      63.240000000000016      57.120000000000012
    38   1      4.0799999999999983       61.20000000000001       61.20000000000001
    39   1      4.0799999999999983      63.240000000000016      63.240000000000016
    40   1      6.1200000000000045       61.20000000000001      63.240000000000016
    41   1      6.1200000000000045      63.240000000000016       61.20000000000001
    42   1      4.0799999999999983       61.20000000000001      65.280000000000001
    43   1      4.0799999999999983      63.240000000000016      67.320000000000007
    44   1      6.1200000000000045       61.20000000000001      67.320000000000007
    45   1      6.1200000000000045      63.240000000000016      65.280000000000001
    46   1      6.1200000000000045       61.20000000000001      71.400000000000006
    47   1      6.1200000000000045      63.240000000000016      69.359999999999999
    48   1      6.1200000000000045      65.280000000000001      55.080000000000013
    49   1      4.0799999999999983      65.280000000000001      57.120000000000012
    50   1      4.0799999999999983      67.320000000000007      59.160000000000004
    51   1      6.1200000000000045      65.280000000000001      59.160000000000004
    52   1      6.1200000000000045      67.320000000000007      57.120000000000012
    53   1      4.0799999999999983      65.280000000000001       61.20000000000001
    54   1      4.0799999999999983      67.320000000000007      63.240000000000016
    55   1      6.1200000000000045      65.280000000000001      63.240000000000016
    56   1      6.1200000000000045      67.320000000000007       61.20000000000001
    57   1      4.0799999999999983      65.280000000000001      65.280000000000001
    58   1      6.1200000000000045      65.280000000000001      67.320000000000007
    59   1      6.1200000000000045      67.320000000000007      65.280000000000001
    60   1      6.1200000000000045      69.359999999999999      59.160000000000004
    61   1      6.1200000000000045      69.359999999999999      63.240000000000016
    62   1      6.1200000000000045      71.400000000000006       61.20000000000001
    63   1      10.200000000000003      46.920000000000002       61.20000000000001
    64   1      10.200000000000003                      51      53.040000000000006
    65   1      8.1600000000000055                      51      59.160000000000004
    66   1      10.200000000000003      48.960000000000001      59.160000000000004
    67   1      10.200000000000003                      51      57.120000000000012
    68   1      8.1600000000000055      48.960000000000001       61.20000000000001
    69   1      8.1600000000000055                      51      63.240000000000016
    70   1      10.200000000000003      48.960000000000001      63.240000000000016
    71   1      10.200000000000003                      51       61.20000000000001
    72   1      10.200000000000003                      51      65.280000000000001
    73   1      10.200000000000003                      51      69.359999999999999
    74   1      10.200000000000003      53.040000000000006                      51
    75   1      8.1600000000000055      55.080000000000013      55.080000000000013
    76   1      10.200000000000003      53.040000000000006      55.080000000000013
    77   1      10.200000000000003      55.080000000000013      53.040000000000006
    78   1      8.1600000000000055      53.040000000000006      57.120000000000012
    79   1      8.1600000000000055      55.080000000000013      59.160000000000004
    80   1      10.200000000000003      53.040000000000006      59.160000000000004
    81   1      10.200000000000003      55.080000000000013      57.120000000000012
    82   1      8.1600000000000055      53.040000000000006       61.20000000000001
    83   1      8.1600000000000055      55.080000000000013      63.240000000000016
    84   1      10.200000000000003      53.040000000000006      63.240000000000016
    85   1      10.200000000000003      55.080000000000013       61.20000000000001
    86   1      8.1600000000000055      53.040000000000006      65.280000000000001
    87   1      8.1600000000000055      55.080000000000013      67.320000000000007
    88   1      10.200000000000003      53.040000000000006      67.320000000000007
    89   1      10.200000000000003      55.080000000000013      65.280000000000001
    90   1      10.200000000000003      53.040000000000006      71.400000000000006
    91   1      10.200000000000003      55.080000000000013      69.359999999999999
    92   1      8.1600000000000055      59.160000000000004                      51
    93   1      10.200000000000003      57.120000000000012                      51
    94   1      10.200000000000003      59.160000000000004      48.960000000000001
    95   1      8.1600000000000055      57.120000000000012      53.040000000000006
    96   1      8.1600000000000055      59.160000000000004      55.080000000000013
    97   1      10.200000000000003      57.120000000000012      55.080000000000013
    98   1      10.200000000000003      59.160000000000004      53.040000000000006
    99   1      8.1600000000000055      57.120000000000012      57.120000000000012
   100   1      8.1600000000000055      59.160000000000004      59.160000000000004
   101   1      10.200000000000003      57.120000000000012      59.160000000000004
   102   1      10.200000000000003      59.160000000000004      57.120000000000012
   103   1      8.1600000000000055      57.120000000000012       61.20000000000001
   104   1      8.1600000000000055      59.160000000000004      63.240000000000016
   105   1      10.200000000000003      57.120000000000012      63.240000000000016
   106   1      10.200000000000003      59.160000000000004       61.20000000000001
   107   1      8.1600000000000055      57.120000000000012      65.280000000000001
   108   1      8.1600000000000055      59.160000000000004      67.320000000000007
   109   1      10.200000000000003      57.120000000000012      67.320000000000007
   110   1      10.200000000000003      59.160000000000004      65.280000000000001
   111   1      8.1600000000000055      57.120000000000012      69.359999999999999
   112   1      8.1600000000000055      59.160000000000004      71.400000000000006
   113   1      10.200000000000003      57.120000000000012      71.400000000000006
   114   1      10.200000000000003      59.160000000000004      69.359999999999999
   115   1      10.200000000000003      59.160000000000004      73.439999999999998
   116   1      10.200000000000003       61.20000000000001      46.920000000000002
   117   1      8.1600000000000055       61.20000000000001      48.960000000000001
   118   1      8.1600000000000055      63.240000000000016                      51
   119   1      10.200000000000003       61.20000000000001                      51
   120   1      10.200000000000003      63.240000000000016      48.960000000000001
   121   1      8.1600000000000055       61.20000000000001      53.040000000000006
   122   1      8.1600000000000055      63.240000000000016      55.080000000000013
   123   1      10.200000000000003       61.20000000000001      55.080000000000013
   124   1      10.200000000000003      63.240000000000016      53.040000000000006
   125   1      8.1600000000000055       61.20000000000001      57.120000000000012
   126   1      8.1600000000000055      63.240000000000016      59.160000000000004
   127   1      10.200000000000003       61.20000000000001      59.160000000000004
   128   1      10.200000000000003      63.240000000000016      57.120000000000012
   129   1      8.1600000000000055       61.20000000000001       61.20000000000001
   130   1      8.1600000000000055      63.240000000000016      63.240000000000016
   131   1      10.200000000000003       61.20000000000001      63.240000000000016
   132   1      10.200000000000003      63.240000000000016       61.20000000000001
   133   1      8.1600000000000055       61.20000000000001      65.280000000000001
   134   1      8.1600000000000055      63.240000000000016      67.320000000000007
   135   1      10.200000000000003       61.20000000000001      67.320000000000007
   136   1      10.200000000000003      63.240000000000016      65.280000000000001
   137   1      8.1600000000000055       61.20000000000001      69.359999999999999
   138   1      8.1600000000000055      63.240000000000016      71.400000000000006
   139   1      10.200000000000003       61.20000000000001      71.400000000000006
   140   1      10.200000000000003      63.240000000000016      69.359999999999999
   141   1      8.1600000000000055       61.20000000000001      73.439999999999998
   142   1      10.200000000000003       61.20000000000001      75.480000000000004
   143   1      10.200000000000003      63.240000000000016      73.439999999999998
   144   1      10.200000000000003      65.280000000000001                      51
   145   1      8.1600000000000055      65.280000000000001      53.040000000000006
   146   1      8.1600000000000055      67.320000000000007      55.080000000000013
   147   1      10.200000000000003      65.280000000000001      55.080000000000013
   148   1      10.200000000000003      67.320000000000007      53.040000000000006
   149   1      8.1600000000000055      65.280000000000001      57.120000000000012
   150   1      8.1600000000000055      67.320000000000007      59.160000000000004
   151   1      10.200000000000003      65.280000000000001      59.160000000000004
   152   1      10.200000000000003      67.320000000000007      57.120000000000012
   153   1      8.1600000000000055      65.280000000000001       61.20000000000001
   154   1      8.1600000000000055      67.320000000000007      63.240000000000016
   155   1      10.200000000000003      65.280000000000001      63.240000000000016
   156   1      10.200000000000003      67.320000000000007       61.20000000000001
   157   1      8.1600000000000055      65.280000000000001      65.280000000000001
   158   1      8.1600000000000055      67.320000000000007      67.320000000000007
   159   1      10.200000000000003      65.280000000000001      67.320000000000007
   160   1      10.200000000000003      67.320000000000007      65.280000000000001
   161   1      8.1600000000000055      65.280000000000001      69.359999999999999
   162   1      10.200000000000003      65.280000000000001      71.400000000000006
   163   1      10.200000000000003      67.320000000000007      69.359999999999999
   164   1      10.200000000000003      69.359999999999999                      51
   165   1      10.200000000000003      69.359999999999999      55.080000000000013
   166   1      10.200000000000003      71.400000000000006      53.040000000000006
   167   1      8.1600000000000055      69.359999999999999      57.120000000000012
   168   1      8.1600000000000055      71.400000000000006      59.160000000000004
   169   1      10.200000000000003      69.359999999999999      59.160000000000004
   170   1      10.200000000000003      71.400000000000006      57.120000000000012
   171   1      8.1600000000000055      69.359999999999999       61.20000000000001
   172   1      8.1600000000000055      71.400000000000006      63.240000000000016
   173   1      10.200000000000003      69.359999999999999      63.240000000000016
   174   1      10.200000000000003      71.400000000000006       61.20000000000001
   175   1      8.1600000000000055      69.359999999999999      65.280000000000001
   176   1      10.200000000000003      69.359999999999999      67.320000000000007
   177   1      10.200000000000003      71.400000000000006      65.280000000000001
   178   1      10.200000000000003      69.359999999999999      71.400000000000006
   179   1      10.200000000000003      71.400000000000006      69.359999999999999
   180   1      10.200000000000003      73.439999999999998      59.160000000000004
   181   1      8.1600000000000055      73.439999999999998       61.20000000000001
   182   1      10.200000000000003      73.439999999999998      63.240000000000016
   183   1      10.200000000000003      75.480000000000004       61.20000000000001
   184   1      14.280000000000003      42.840000000000011      57.120000000000012
   185   1      14.280000000000003      42.840000000000011       61.20000000000001
   186   1      14.280000000000003      42.840000000000011      65.280000000000001
   187   1      12.240000000000002      46.920000000000002      55.080000000000013
   188   1      14.280000000000003       44.88000000000001      55.080000000000013
   189   1      14.280000000000003      46.920000000000002      53.040000000000006
   190   1      12.240000000000002      46.920000000000002      59.160000000000004
   191   1      14.280000000000003       44.88000000000001      59.160000000000004
   192   1      14.280000000000003      46.920000000000002      57.120000000000012
   193   1      12.240000000000002       44.88000000000001       61.20000000000001
   194   1      12.240000000000002      46.920000000000002      63.240000000000016
   195   1      14.280000000000003       44.88000000000001      63.240000000000016
   196   1      14.280000000000003      46.920000000000002       61.20000000000001
   197   1      12.240000000000002      46.920000000000002      67.320000000000007
   198   1      14.280000000000003       44.88000000000001      67.320000000000007
   199   1      14.280000000000003      46.920000000000002      65.280000000000001
   200   1      14.280000000000003      46.920000000000002      69.359999999999999
   201   1      12.240000000000002                      51                      51
   202   1      14.280000000000003      48.960000000000001                      51
   203   1      14.280000000000003                      51      48.960000000000001
   204   1      12.240000000000002      48.960000000000001      53.040000000000006
   205   1      12.240000000000002                      51      55.080000000000013
   206   1      14.280000000000003      48.960000000000001      55.080000000000013
   207   1      14.280000000000003                      51      53.040000000000006
   208   1      12.240000000000002      48.960000000000001      57.120000000000012
   209   1      12.240000000000002                      51      59.160000000000004
   210   1      14.280000000000003      48.960000000000001      59.160000000000004
   211   1      14.280000000000003                      51      57.120000000000012
   212   1      12.240000000000002      48.960000000000001       61.20000000000001
   213   1      12.240000000000002                      51      63.240000000000016
   214   1      14.280000000000003      48.960000000000001      63.240000000000016
   215   1      14.280000000000003                      51       61.20000000000001
   216   1      12.240000000000002      48.960000000000001      65.280000000000001
   217   1      12.240000000000002                      51      67.320000000000007
   218   1      14.280000000000003      48.960000000000001      67.320000000000007
   219   1      14.280000000000003                      51      65.280000000000001
   220   1      12.240000000000002      48.960000000000001      69.359999999999999
   221   1      12.240000000000002                      51      71.400000000000006
   222   1      14.280000000000003      48.960000000000001      71.400000000000006
   223   1      14.280000000000003                      51      69.359999999999999
   224   1      14.280000000000003                      51      73.439999999999998
   225   1      12.240000000000002      55.080000000000013      46.920000000000002
   226   1      14.280000000000003      53.040000000000006      46.920000000000002
   227   1      14.280000000000003      55.080000000000013       44.88000000000001
   228   1      12.240000000000002      53.040000000000006      48.960000000000001
   229   1      12.240000000000002      55.080000000000013                      51
   230   1      14.280000000000003      53.040000000000006                      51
   231   1      14.280000000000003      55.080000000000013      48.960000000000001
   232   1      12.240000000000002      53.040000000000006      53.040000000000006
   233   1      12.240000000000002      55.080000000000013      55.080000000000013
   234   1      14.280000000000003      53.040000000000006      55.080000000000013
   235   1      14.280000000000003      55.080000000000013      53.040000000000006
   236   1      12.240000000000002      53.040000000000006      57.120000000000012
   237   1      12.240000000000002      55.080000000000013      59.160000000000004
   238   1      14.280000000000003      53.040000000000006      59.160000000000004
   239   1      14.280000000000003      55.080000000000013      57.120000000000012
   240   1      12.240000000000002      53.040000000000006       61.20000000000001
   241   1      12.240000000000002      55.080000000000013      63.240000000000016
   242   1      14.280000000000003      53.040000000000006      63.240000000000016
   243   1      14.280000000000003      55.080000000000013       61.20000000000001
   244   1      12.240000000000002      53.040000000000006      65.280000000000001
   245   1      12.240000000000002      55.080000000000013      67.320000000000007
   246   1      14.280000000000003      53.040000000000006      67.320000000000007
   247   1      14.280000000000003      55.080000000000013      65.280000000000001
   248   1      12.240000000000002      53.040000000000006      69.359999999999999
   249   1      12.240000000000002      55.080000000000013      71.400000000000006
   250   1      14.280000000000003      53.040000000000006      71.400000000000006
   251   1      14.280000000000003      55.080000000000013      69.359999999999999
   252   1      12.240000000000002      53.040000000000006      73.439999999999998
   253   1      12.240000000000002      55.080000000000013      75.480000000000004
   254   1      14.280000000000003      53.040000000000006      75.480000000000004
   255   1      14.280000000000003      55.080000000000013      73.439999999999998
   256   1      14.280000000000003      55.080000000000013      77.519999999999996
   257   1      14.280000000000003      57.120000000000012      42.840000000000011
   258   1      12.240000000000002      59.160000000000004      46.920000000000002
   259   1      14.280000000000003      57.120000000000012      46.920000000000002
   260   1      14.280000000000003      59.160000000000004       44.88000000000001
   261   1      12.240000000000002      57.120000000000012      48.960000000000001
   262   1      12.240000000000002      59.160000000000004                      51
   263   1      14.280000000000003      57.120000000000012                      51
   264   1      14.280000000000003      59.160000000000004      48.960000000000001
   265   1      12.240000000000002      57.120000000000012      53.040000000000006
   266   1      12.240000000000002      59.160000000000004      55.080000000000013
   267   1      14.280000000000003      57.120000000000012      55.080000000000013
   268   1      14.280000000000003      59.160000000000004      53.040000000000006
   269   1      12.240000000000002      57.120000000000012      57.120000000000012
   270   1      12.240000000000002      59.160000000000004      59.160000000000004
   271   1      14.280000000000003      57.120000000000012      59.160000000000004
   272   1      14.280000000000003      59.160000000000004      57.120000000000012
   273   1      12.240000000000002      57.120000000000012       61.20000000000001
   274   1      12.240000000000002      59.160000000000004      63.240000000000016
   275   1      14.280000000000003      57.120000000000012      63.240000000000016
   276   1      14.280000000000003      59.160000000000004       61.20000000000001
   277   1      12.240000000000002      57.120000000000012      65.280000000000001
   278   1      12.240000000000002      59.160000000000004      67.320000000000007
   279   1      14.280000000000003      57.120000000000012      67.320000000000007
   280   1      14.280000000000003      59.160000000000004      65.280000000000001
   281   1      12.240000000000002      57.120000000000012      69.359999999999999
   282   1      12.240000000000002      59.160000000000004      71.400000000000006
   283   1      14.280000000000003      57.120000000000012      71.400000000000006
   284   1      14.280000000000003      59.160000000000004      69.359999999999999
   285   1      12.240000000000002      57.120000000000012      73.439999999999998
   286   1      12.240000000000002      59.160000000000004      75.480000000000004
   287   1      14.280000000000003      57.120000000000012      75.480000000000004
   288   1      14.280000000000003      59.160000000000004      73.439999999999998
   289   1      14.280000000000003      57.120000000000012      79.560000000000002
   290   1      14.280000000000003      59.160000000000004      77.519999999999996
   291   1      14.280000000000003       61.20000000000001      42.840000000000011
   292   1      12.240000000000002       61.20000000000001       44.88000000000001
   293   1      12.240000000000002      63.240000000000016      46.920000000000002
   294   1      14.280000000000003       61.20000000000001      46.920000000000002
   295   1      14.280000000000003      63.240000000000016       44.88000000000001
   296   1      12.240000000000002       61.20000000000001      48.960000000000001
   297   1      12.240000000000002      63.240000000000016                      51
   298   1      14.280000000000003       61.20000000000001                      51
   299   1      14.280000000000003      63.240000000000016      48.960000000000001
   300   1      12.240000000000002       61.20000000000001      53.040000000000006
   301   1      12.240000000000002      63.240000000000016      55.080000000000013
   302   1      14.280000000000003       61.20000000000001      55.080000000000013
   303   1      14.280000000000003      63.240000000000016      53.040000000000006
   304   1      12.240000000000002       61.20000000000001      57.120000000000012
   305   1      12.240000000000002      63.240000000000016      59.160000000000004
   306   1      14.280000000000003       61.20000000000001      59.160000000000004
   307   1      14.280000000000003      63.240000000000016      57.120000000000012
   308   1      12.240000000000002       61.20000000000001       61.20000000000001
   309   1      12.240000000000002      63.240000000000016      63.240000000000016
   310   1      14.280000000000003       61.20000000000001      63.240000000000016
   311   1      14.280000000000003      63.240000000000016       61.20000000000001
   312   1      12.240000000000002       61.20000000000001      65.280000000000001
   313   1      12.240000000000002      63.240000000000016      67.320000000000007
   314   1      14.280000000000003       61.20000000000001      67.320000000000007
   315   1      14.280000000000003      63.240000000000016      65.280000000000001
   316   1      12.240000000000002       61.20000000000001      69.359999999999999
   317   1      12.240000000000002      63.240000000000016      71.400000000000006
   318   1      14.280000000000003       61.20000000000001      71.400000000000006
   319   1      14.280000000000003      63.240000000000016      69.359999999999999
   320   1      12.240000000000002       61.20000000000001      73.439999999999998
   321   1      12.240000000000002      63.240000000000016      75.480000000000004
   322   1      14.280000000000003       61.20000000000001      75.480000000000004
   323   1      14.280000000000003      63.240000000000016      73.439999999999998
   324   1      12.240000000000002       61.20000000000001      77.519999999999996
   325   1      14.280000000000003       61.20000000000001      79.560000000000002
   326   1      14.280000000000003      63.240000000000016      77.519999999999996
   327   1      14.280000000000003      65.280000000000001      42.840000000000011
   328   1      12.240000000000002      67.320000000000007      46.920000000000002
   329   1      14.280000000000003      65.280000000000001      46.920000000000002
   330   1      14.280000000000003      67.320000000000007       44.88000000000001
   331   1      12.240000000000002      65.280000000000001      48.960000000000001
   332   1      12.240000000000002      67.320000000000007                      51
   333   1      14.280000000000003      65.280000000000001                      51
   334   1      14.280000000000003      67.320000000000007      48.960000000000001
   335   1      12.240000000000002      65.280000000000001      53.040000000000006
   336   1      12.240000000000002      67.320000000000007      55.080000000000013
   337   1      14.280000000000003      65.280000000000001      55.080000000000013
   338   1      14.280000000000003      67.320000000000007      53.040000000000006
   339   1      12.240000000000002      65.280000000000001      57.120000000000012
   340   1      12.240000000000002      67.320000000000007      59.160000000000004
   341   1      14.280000000000003      65.280000000000001      59.160000000000004
   342   1      14.280000000000003      67.320000000000007      57.120000000000012
   343   1      12.240000000000002      65.280000000000001       61.20000000000001
   344   1      12.240000000000002      67.320000000000007      63.240000000000016
   345   1      14.280000000000003      65.280000000000001      63.240000000000016
   346   1      14.280000000000003      67.320000000000007       61.20000000000001
   347   1      12.240000000000002      65.280000000000001      65.280000000000001
   348   1      12.240000000000002      67.320000000000007      67.320000000000007
   349   1      14.280000000000003      65.280000000000001      67.320000000000007
   350   1      14.280000000000003      67.320000000000007      65.280000000000001
   351   1      12.240000000000002      65.280000000000001      69.359999999999999
   352   1      12.240000000000002      67.320000000000007      71.400000000000006
   353   1      14.280000000000003      65.280000000000001      71.400000000000006
   354   1      14.280000000000003      67.320000000000007      69.359999999999999
   355   1      12.240000000000002      65.280000000000001      73.439999999999998
   356   1      12.240000000000002      67.320000000000007      75.480000000000004
   357   1      14.280000000000003      65.280000000000001      75.480000000000004
   358   1      14.280000000000003      67.320000000000007      73.439999999999998