model_files/Cu/Cu_30000/Cu_541/data.Cu_541_fcc_30387 (written by ASE) 

30387 	 atoms 
1  atom types
0.0                     108  xlo xhi
0.0                     108  ylo yhi
0.0                     108  zlo zhi


Atoms 

     1   1      1.8049999999999997      52.344999999999999      54.149999999999999
     2   1      1.8049999999999997      54.149999999999999      52.344999999999999
     3   1                       0      54.149999999999999      54.149999999999999
     4   1      1.8049999999999997      54.149999999999999      55.954999999999991
     5   1      1.8049999999999997      55.954999999999991      54.149999999999999
     6   1      5.4149999999999991      48.734999999999999      50.539999999999992
     7   1      5.4149999999999991      48.734999999999999      54.149999999999999
     8   1      5.4149999999999991      48.734999999999999      57.759999999999991
     9   1      5.4149999999999991      50.539999999999992      48.734999999999999
    10   1      3.6099999999999994      50.539999999999992      50.539999999999992
    11   1      3.6099999999999994      52.344999999999999      52.344999999999999
    12   1      5.4149999999999991      50.539999999999992      52.344999999999999
    13   1      5.4149999999999991      52.344999999999999      50.539999999999992
    14   1      3.6099999999999994      50.539999999999992      54.149999999999999
    15   1      3.6099999999999994      52.344999999999999      55.954999999999991
    16   1      5.4149999999999991      50.539999999999992      55.954999999999991
    17   1      5.4149999999999991      52.344999999999999      54.149999999999999
    18   1      3.6099999999999994      50.539999999999992      57.759999999999991
    19   1      5.4149999999999991      50.539999999999992      59.564999999999998
    20   1      5.4149999999999991      52.344999999999999      57.759999999999991
    21   1      5.4149999999999991      54.149999999999999      48.734999999999999
    22   1      3.6099999999999994      54.149999999999999      50.539999999999992
    23   1      3.6099999999999994      55.954999999999991      52.344999999999999
    24   1      5.4149999999999991      54.149999999999999      52.344999999999999
    25   1      5.4149999999999991      55.954999999999991      50.539999999999992
    26   1      3.6099999999999994      54.149999999999999      54.149999999999999
    27   1      3.6099999999999994      55.954999999999991      55.954999999999991
    28   1      5.4149999999999991      54.149999999999999      55.954999999999991
    29   1      5.4149999999999991      55.954999999999991      54.149999999999999
    30   1      3.6099999999999994      54.149999999999999      57.759999999999991
    31   1      5.4149999999999991      54.149999999999999      59.564999999999998
    32   1      5.4149999999999991      55.954999999999991      57.759999999999991
    33   1      5.4149999999999991      57.759999999999991      48.734999999999999
    34   1      3.6099999999999994      57.759999999999991      50.539999999999992
    35   1      5.4149999999999991      57.759999999999991      52.344999999999999
    36   1      5.4149999999999991      59.564999999999998      50.539999999999992
    37   1      3.6099999999999994      57.759999999999991      54.149999999999999
    38   1      5.4149999999999991      57.759999999999991      55.954999999999991
    39   1      5.4149999999999991      59.564999999999998      54.149999999999999
    40   1      3.6099999999999994      57.759999999999991      57.759999999999991
    41   1      5.4149999999999991      57.759999999999991      59.564999999999998
    42   1      5.4149999999999991      59.564999999999998      57.759999999999991
    43   1      9.0249999999999986                  45.125      46.929999999999993
    44   1      9.0249999999999986                   43.32      52.344999999999999
    45   1      9.0249999999999986                  45.125      50.539999999999992
    46   1      9.0249999999999986                   43.32      55.954999999999991
    47   1      9.0249999999999986                  45.125      54.149999999999999
    48   1      9.0249999999999986                  45.125      57.759999999999991
    49   1      9.0249999999999986                  45.125      61.369999999999997
    50   1      9.0249999999999986      46.929999999999993                  45.125
    51   1      7.2199999999999989      46.929999999999993      46.929999999999993
    52   1      7.2199999999999989      48.734999999999999      48.734999999999999
    53   1      9.0249999999999986      46.929999999999993      48.734999999999999
    54   1      9.0249999999999986      48.734999999999999      46.929999999999993
    55   1      7.2199999999999989      46.929999999999993      50.539999999999992
    56   1      7.2199999999999989      48.734999999999999      52.344999999999999
    57   1      9.0249999999999986      46.929999999999993      52.344999999999999
    58   1      9.0249999999999986      48.734999999999999      50.539999999999992
    59   1      7.2199999999999989      46.929999999999993      54.149999999999999
    60   1      7.2199999999999989      48.734999999999999      55.954999999999991
    61   1      9.0249999999999986      46.929999999999993      55.954999999999991
    62   1      9.0249999999999986      48.734999999999999      54.149999999999999
    63   1      7.2199999999999989      46.929999999999993      57.759999999999991
    64   1      7.2199999999999989      48.734999999999999      59.564999999999998
    65   1      9.0249999999999986      46.929999999999993      59.564999999999998
    66   1      9.0249999999999986      48.734999999999999      57.759999999999991
    67   1      7.2199999999999989      46.929999999999993      61.369999999999997
    68   1      9.0249999999999986      46.929999999999993      63.174999999999997
    69   1      9.0249999999999986      48.734999999999999      61.369999999999997
    70   1      9.0249999999999986      50.539999999999992                  45.125
    71   1      9.0249999999999986      52.344999999999999                   43.32
    72   1      7.2199999999999989      50.539999999999992      46.929999999999993
    73   1      7.2199999999999989      52.344999999999999      48.734999999999999
    74   1      9.0249999999999986      50.539999999999992      48.734999999999999
    75   1      9.0249999999999986      52.344999999999999      46.929999999999993
    76   1      7.2199999999999989      50.539999999999992      50.539999999999992
    77   1      7.2199999999999989      52.344999999999999      52.344999999999999
    78   1      9.0249999999999986      50.539999999999992      52.344999999999999
    79   1      9.0249999999999986      52.344999999999999      50.539999999999992
    80   1      7.2199999999999989      50.539999999999992      54.149999999999999
    81   1      7.2199999999999989      52.344999999999999      55.954999999999991
    82   1      9.0249999999999986      50.539999999999992      55.954999999999991
    83   1      9.0249999999999986      52.344999999999999      54.149999999999999
    84   1      7.2199999999999989      50.539999999999992      57.759999999999991
    85   1      7.2199999999999989      52.344999999999999      59.564999999999998
    86   1      9.0249999999999986      50.539999999999992      59.564999999999998
    87   1      9.0249999999999986      52.344999999999999      57.759999999999991
    88   1      7.2199999999999989      50.539999999999992      61.369999999999997
    89   1      9.0249999999999986      50.539999999999992      63.174999999999997
    90   1      9.0249999999999986      52.344999999999999      61.369999999999997
    91   1      9.0249999999999986      52.344999999999999      64.980000000000004
    92   1      9.0249999999999986      54.149999999999999                  45.125
    93   1      9.0249999999999986      55.954999999999991                   43.32
    94   1      7.2199999999999989      54.149999999999999      46.929999999999993
    95   1      7.2199999999999989      55.954999999999991      48.734999999999999
    96   1      9.0249999999999986      54.149999999999999      48.734999999999999
    97   1      9.0249999999999986      55.954999999999991      46.929999999999993
    98   1      7.2199999999999989      54.149999999999999      50.539999999999992
    99   1      7.2199999999999989      55.954999999999991      52.344999999999999
   100   1      9.0249999999999986      54.149999999999999      52.344999999999999
   101   1      9.0249999999999986      55.954999999999991      50.539999999999992
   102   1      7.2199999999999989      54.149999999999999      54.149999999999999
   103   1      7.2199999999999989      55.954999999999991      55.954999999999991
   104   1      9.0249999999999986      54.149999999999999      55.954999999999991
   105   1      9.0249999999999986      55.954999999999991      54.149999999999999
   106   1      7.2199999999999989      54.149999999999999      57.759999999999991
   107   1      7.2199999999999989      55.954999999999991      59.564999999999998
   108   1      9.0249999999999986      54.149999999999999      59.564999999999998
   109   1      9.0249999999999986      55.954999999999991      57.759999999999991
   110   1      7.2199999999999989      54.149999999999999      61.369999999999997
   111   1      9.0249999999999986      54.149999999999999      63.174999999999997
   112   1      9.0249999999999986      55.954999999999991      61.369999999999997
   113   1      9.0249999999999986      55.954999999999991      64.980000000000004
   114   1      9.0249999999999986      57.759999999999991                  45.125
   115   1      7.2199999999999989      57.759999999999991      46.929999999999993
   116   1      7.2199999999999989      59.564999999999998      48.734999999999999
   117   1      9.0249999999999986      57.759999999999991      48.734999999999999
   118   1      9.0249999999999986      59.564999999999998      46.929999999999993
   119   1      7.2199999999999989      57.759999999999991      50.539999999999992
   120   1      7.2199999999999989      59.564999999999998      52.344999999999999
   121   1      9.0249999999999986      57.759999999999991      52.344999999999999
   122   1      9.0249999999999986      59.564999999999998      50.539999999999992
   123   1      7.2199999999999989      57.759999999999991      54.149999999999999
   124   1      7.2199999999999989      59.564999999999998      55.954999999999991
   125   1      9.0249999999999986      57.759999999999991      55.954999999999991
   126   1      9.0249999999999986      59.564999999999998      54.149999999999999
   127   1      7.2199999999999989      57.759999999999991      57.759999999999991
   128   1      7.2199999999999989      59.564999999999998      59.564999999999998
   129   1      9.0249999999999986      57.759999999999991      59.564999999999998
   130   1      9.0249999999999986      59.564999999999998      57.759999999999991
   131   1      7.2199999999999989      57.759999999999991      61.369999999999997
   132   1      9.0249999999999986      57.759999999999991      63.174999999999997
   133   1      9.0249999999999986      59.564999999999998      61.369999999999997
   134   1      9.0249999999999986      61.369999999999997                  45.125
   135   1      7.2199999999999989      61.369999999999997      46.929999999999993
   136   1      9.0249999999999986      61.369999999999997      48.734999999999999
   137   1      9.0249999999999986      63.174999999999997      46.929999999999993
   138   1      7.2199999999999989      61.369999999999997      50.539999999999992
   139   1      9.0249999999999986      61.369999999999997      52.344999999999999
   140   1      9.0249999999999986      63.174999999999997      50.539999999999992
   141   1      7.2199999999999989      61.369999999999997      54.149999999999999
   142   1      9.0249999999999986      61.369999999999997      55.954999999999991
   143   1      9.0249999999999986      63.174999999999997      54.149999999999999
   144   1      7.2199999999999989      61.369999999999997      57.759999999999991
   145   1      9.0249999999999986      61.369999999999997      59.564999999999998
   146   1      9.0249999999999986      63.174999999999997      57.759999999999991
   147   1      7.2199999999999989      61.369999999999997      61.369999999999997
   148   1      9.0249999999999986      61.369999999999997      63.174999999999997
   149   1      9.0249999999999986      63.174999999999997      61.369999999999997
   150   1      9.0249999999999986      64.980000000000004      52.344999999999999
   151   1      9.0249999999999986      64.980000000000004      55.954999999999991
   152   1      12.634999999999998      41.515000000000001                   43.32
   153   1      12.634999999999998      39.710000000000001      48.734999999999999
   154   1      12.634999999999998      41.515000000000001      46.929999999999993
   155   1      10.829999999999998      41.515000000000001      52.344999999999999
   156   1      12.634999999999998      39.710000000000001      52.344999999999999
   157   1      12.634999999999998      41.515000000000001      50.539999999999992
   158   1      10.829999999999998      41.515000000000001      55.954999999999991
   159   1      12.634999999999998      39.710000000000001      55.954999999999991
   160   1      12.634999999999998      41.515000000000001      54.149999999999999
   161   1      12.634999999999998      39.710000000000001      59.564999999999998
   162   1      12.634999999999998      41.515000000000001      57.759999999999991
   163   1      12.634999999999998      41.515000000000001      61.369999999999997
   164   1      12.634999999999998      41.515000000000001      64.980000000000004
   165   1      12.634999999999998                   43.32      41.515000000000001
   166   1      10.829999999999998                   43.32                   43.32
   167   1      10.829999999999998                  45.125                  45.125
   168   1      12.634999999999998                   43.32                  45.125
   169   1      12.634999999999998                  45.125                   43.32
   170   1      10.829999999999998                   43.32      46.929999999999993
   171   1      10.829999999999998                  45.125      48.734999999999999
   172   1      12.634999999999998                   43.32      48.734999999999999
   173   1      12.634999999999998                  45.125      46.929999999999993
   174   1      10.829999999999998                   43.32      50.539999999999992
   175   1      10.829999999999998                  45.125      52.344999999999999
   176   1      12.634999999999998                   43.32      52.344999999999999
   177   1      12.634999999999998                  45.125      50.539999999999992
   178   1      10.829999999999998                   43.32      54.149999999999999
   179   1      10.829999999999998                  45.125      55.954999999999991
   180   1      12.634999999999998                   43.32      55.954999999999991
   181   1      12.634999999999998                  45.125      54.149999999999999
   182   1      10.829999999999998                   43.32      57.759999999999991
   183   1      10.829999999999998                  45.125      59.564999999999998
   184   1      12.634999999999998                   43.32      59.564999999999998
   185   1      12.634999999999998                  45.125      57.759999999999991
   186   1      10.829999999999998                   43.32      61.369999999999997
   187   1      10.829999999999998                  45.125      63.174999999999997
   188   1      12.634999999999998                   43.32      63.174999999999997
   189   1      12.634999999999998                  45.125      61.369999999999997
   190   1      10.829999999999998                   43.32      64.980000000000004
   191   1      12.634999999999998                   43.32      66.785000000000011
   192   1      12.634999999999998                  45.125      64.980000000000004
   193   1      12.634999999999998      46.929999999999993      41.515000000000001
   194   1      12.634999999999998      48.734999999999999      39.710000000000001
   195   1      10.829999999999998      46.929999999999993                   43.32
   196   1      10.829999999999998      48.734999999999999                  45.125
   197   1      12.634999999999998      46.929999999999993                  45.125
   198   1      12.634999999999998      48.734999999999999                   43.32
   199   1      10.829999999999998      46.929999999999993      46.929999999999993
   200   1      10.829999999999998      48.734999999999999      48.734999999999999
   201   1      12.634999999999998      46.929999999999993      48.734999999999999
   202   1      12.634999999999998      48.734999999999999      46.929999999999993
   203   1      10.829999999999998      46.929999999999993      50.539999999999992
   204   1      10.829999999999998      48.734999999999999      52.344999999999999
   205   1      12.634999999999998      46.929999999999993      52.344999999999999
   206   1      12.634999999999998      48.734999999999999      50.539999999999992
   207   1      10.829999999999998      46.929999999999993      54.149999999999999
   208   1      10.829999999999998      48.734999999999999      55.954999999999991
   209   1      12.634999999999998      46.929999999999993      55.954999999999991
   210   1      12.634999999999998      48.734999999999999      54.149999999999999
   211   1      10.829999999999998      46.929999999999993      57.759999999999991
   212   1      10.829999999999998      48.734999999999999      59.564999999999998
   213   1      12.634999999999998      46.929999999999993      59.564999999999998
   214   1      12.634999999999998      48.734999999999999      57.759999999999991
   215   1      10.829999999999998      46.929999999999993      61.369999999999997
   216   1      10.829999999999998      48.734999999999999      63.174999999999997
   217   1      12.634999999999998      46.929999999999993      63.174999999999997
   218   1      12.634999999999998      48.734999999999999      61.369999999999997
   219   1      10.829999999999998      46.929999999999993      64.980000000000004
   220   1      12.634999999999998      46.929999999999993      66.785000000000011
   221   1      12.634999999999998      48.734999999999999      64.980000000000004
   222   1      12.634999999999998      48.734999999999999      68.589999999999989
   223   1      10.829999999999998      52.344999999999999      41.515000000000001
   224   1      12.634999999999998      50.539999999999992      41.515000000000001
   225   1      12.634999999999998      52.344999999999999      39.710000000000001
   226   1      10.829999999999998      50.539999999999992                   43.32
   227   1      10.829999999999998      52.344999999999999                  45.125
   228   1      12.634999999999998      50.539999999999992                  45.125
   229   1      12.634999999999998      52.344999999999999                   43.32
   230   1      10.829999999999998      50.539999999999992      46.929999999999993
   231   1      10.829999999999998      52.344999999999999      48.734999999999999
   232   1      12.634999999999998      50.539999999999992      48.734999999999999
   233   1      12.634999999999998      52.344999999999999      46.929999999999993
   234   1      10.829999999999998      50.539999999999992      50.539999999999992
   235   1      10.829999999999998      52.344999999999999      52.344999999999999
   236   1      12.634999999999998      50.539999999999992      52.344999999999999
   237   1      12.634999999999998      52.344999999999999      50.539999999999992
   238   1      10.829999999999998      50.539999999999992      54.149999999999999
   239   1      10.829999999999998      52.344999999999999      55.954999999999991
   240   1      12.634999999999998      50.539999999999992      55.954999999999991
   241   1      12.634999999999998      52.344999999999999      54.149999999999999
   242   1      10.829999999999998      50.539999999999992      57.759999999999991
   243   1      10.829999999999998      52.344999999999999      59.564999999999998
   244   1      12.634999999999998      50.539999999999992      59.564999999999998
   245   1      12.634999999999998      52.344999999999999      57.759999999999991
   246   1      10.829999999999998      50.539999999999992      61.369999999999997
   247   1      10.829999999999998      52.344999999999999      63.174999999999997
   248   1      12.634999999999998      50.539999999999992      63.174999999999997
   249   1      12.634999999999998      52.344999999999999      61.369999999999997
   250   1      10.829999999999998      50.539999999999992      64.980000000000004
   251   1      10.829999999999998      52.344999999999999      66.785000000000011
   252   1      12.634999999999998      50.539999999999992      66.785000000000011
   253   1      12.634999999999998      52.344999999999999      64.980000000000004
   254   1      12.634999999999998      52.344999999999999      68.589999999999989
   255   1      10.829999999999998      55.954999999999991      41.515000000000001
   256   1      12.634999999999998      54.149999999999999      41.515000000000001
   257   1      12.634999999999998      55.954999999999991      39.710000000000001
   258   1      10.829999999999998      54.149999999999999                   43.32
   259   1      10.829999999999998      55.954999999999991                  45.125
   260   1      12.634999999999998      54.149999999999999                  45.125
   261   1      12.634999999999998      55.954999999999991                   43.32
   262   1      10.829999999999998      54.149999999999999      46.929999999999993
   263   1      10.829999999999998      55.954999999999991      48.734999999999999
   264   1      12.634999999999998      54.149999999999999      48.734999999999999
   265   1      12.634999999999998      55.954999999999991      46.929999999999993
   266   1      10.829999999999998      54.149999999999999      50.539999999999992
   267   1      10.829999999999998      55.954999999999991      52.344999999999999
   268   1      12.634999999999998      54.149999999999999      52.344999999999999
   269   1      12.634999999999998      55.954999999999991      50.539999999999992
   270   1      10.829999999999998      54.149999999999999      54.149999999999999
   271   1      10.829999999999998      55.954999999999991      55.954999999999991
   272   1      12.634999999999998      54.149999999999999      55.954999999999991
   273   1      12.634999999999998      55.954999999999991      54.149999999999999
   274   1      10.829999999999998      54.149999999999999      57.759999999999991
   275   1      10.829999999999998      55.954999999999991      59.564999999999998
   276   1      12.634999999999998      54.149999999999999      59.564999999999998
   277   1      12.634999999999998      55.954999999999991      57.759999999999991
   278   1      10.829999999999998      54.149999999999999      61.369999999999997
   279   1      10.829999999999998      55.954999999999991      63.174999999999997
   280   1      12.634999999999998      54.149999999999999      63.174999999999997
   281   1      12.634999999999998      55.954999999999991      61.369999999999997
   282   1      10.829999999999998      54.149999999999999      64.980000000000004
   283   1      10.829999999999998      55.954999999999991      66.785000000000011
   284   1      12.634999999999998      54.149999999999999      66.785000000000011
   285   1      12.634999999999998      55.954999999999991      64.980000000000004
   286   1      12.634999999999998      55.954999999999991      68.589999999999989
   287   1      12.634999999999998      57.759999999999991      41.515000000000001
   288   1      12.634999999999998      59.564999999999998      39.710000000000001
   289   1      10.829999999999998      57.759999999999991                   43.32
   290   1      10.829999999999998      59.564999999999998                  45.125
   291   1      12.634999999999998      57.759999999999991                  45.125
   292   1      12.634999999999998      59.564999999999998                   43.32
   293   1      10.829999999999998      57.759999999999991      46.929999999999993
   294   1      10.829999999999998      59.564999999999998      48.734999999999999
   295   1      12.634999999999998      57.759999999999991      48.734999999999999
   296   1      12.634999999999998      59.564999999999998      46.929999999999993
   297   1      10.829999999999998      57.759999999999991      50.539999999999992
   298   1      10.829999999999998      59.564999999999998      52.344999999999999
   299   1      12.634999999999998      57.759999999999991      52.344999999999999
   300   1      12.634999999999998      59.564999999999998      50.539999999999992
   301   1      10.829999999999998      57.759999999999991      54.149999999999999
   302   1      10.829999999999998      59.564999999999998      55.954999999999991
   303   1      12.634999999999998      57.759999999999991      55.954999999999991
   304   1      12.634999999999998      59.564999999999998      54.149999999999999
   305   1      10.829999999999998      57.759999999999991      57.759999999999991
   306   1      10.829999999999998      59.564999999999998      59.564999999999998
   307   1      12.634999999999998      57.759999999999991      59.564999999999998
   308   1      12.634999999999998      59.564999999999998      57.759999999999991
   309   1      10.829999999999998      57.759999999999991      61.369999999999997
   310   1      10.829999999999998      59.564999999999998      63.174999999999997
   311   1      12.634999999999998      57.759999999999991      63.174999999999997
   312   1      12.634999999999998      59.564999999999998      61.369999999999997
   313   1      10.829999999999998      57.759999999999991      64.980000000000004
   314   1      12.634999999999998      57.759999999999991      66.785000000000011
   315   1      12.634999999999998      59.564999999999998      64.980000000000004
   316   1      12.634999999999998      59.564999999999998      68.589999999999989
   317   1      12.634999999999998      61.369999999999997      41.515000000000001
   318   1      10.829999999999998      61.369999999999997                   43.32
   319   1      10.829999999999998      63.174999999999997                  45.125
   320   1      12.634999999999998      61.369999999999997                  45.125
   321   1      12.634999999999998      63.174999999999997                   43.32
   322   1      10.829999999999998      61.369999999999997      46.929999999999993
   323   1      10.829999999999998      63.174999999999997      48.734999999999999
   324   1      12.634999999999998      61.369999999999997      48.734999999999999
   325   1      12.634999999999998      63.174999999999997      46.929999999999993
   326   1      10.829999999999998      61.369999999999997      50.539999999999992
   327   1      10.829999999999998      63.174999999999997      52.344999999999999
   328   1      12.634999999999998      61.369999999999997      52.344999999999999
   329   1      12.634999999999998      63.174999999999997      50.539999999999992
   330   1      10.829999999999998      61.369999999999997      54.149999999999999
   331   1      10.829999999999998      63.174999999999997      55.954999999999991
   332   1      12.634999999999998      61.369999999999997      55.954999999999991
   333   1      12.634999999999998      63.174999999999997      54.149999999999999
   334   1      10.829999999999998      61.369999999999997      57.759999999999991
   335   1      10.829999999999998      63.174999999999997      59.564999999999998
   336   1      12.634999999999998      61.369999999999997      59.564999999999998
   337   1      12.634999999999998      63.174999999999997      57.759999999999991
   338   1      10.829999999999998      61.369999999999997      61.369999999999997
   339   1      10.829999999999998      63.174999999999997      63.174999999999997
   340   1      12.634999999999998      61.369999999999997      63.174999999999997
   341   1      12.634999999999998      63.174999999999997      61.369999999999997
   342   1      10.829999999999998      61.369999999999997      64.980000000000004
   343   1      12.634999999999998      61.369999999999997      66.785000000000011
   344   1      12.634999999999998      63.174999999999997      64.980000000000004
   345   1      12.634999999999998      64.980000000000004      41.515000000000001
   346   1      10.829999999999998      64.980000000000004                   43.32
   347   1      12.634999999999998      64.980000000000004                  45.125
   348   1      12.634999999999998      66.785000000000011                   43.32
   349   1      10.829999999999998      64.980000000000004      46.929999999999993
   350   1      12.634999999999998      64.980000000000004      48.734999999999999
   351   1      12.634999999999998      66.785000000000011      46.929999999999993
   352   1      10.829999999999998      64.980000000000004      50.539999999999992
   353   1      10.829999999999998      66.785000000000011      52.344999999999999
   354   1      12.634999999999998      64.980000000000004      52.344999999999999
   355   1      12.634999999999998      66.785000000000011      50.539999999999992
   356   1      10.829999999999998      64.980000000000004      54.149999999999999
   357   1      10.829999999999998      66.785000000000011      55.954999999999991
   358   1      12.634999999999998      64.980000000000004      55.954999999999991