model_files/Pd/Pd_30000/Pd_211/data.Pd_211_fcc_30069 (written by ASE) 

30069 	 atoms 
1  atom types
0.0                     108  xlo xhi
0.0                     108  ylo yhi
0.0                     108  zlo zhi


Atoms 

     1   1      1.9450000000000001      52.514999999999993      54.459999999999994
     2   1      1.9450000000000001      54.459999999999994      52.514999999999993
     3   1                       0      54.459999999999994      54.459999999999994
     4   1      1.9450000000000001      54.459999999999994      56.405000000000001
     5   1      1.9450000000000001      56.405000000000001      54.459999999999994
     6   1      5.8350000000000009      44.734999999999999      54.459999999999994
     7   1      3.8900000000000001                  48.625      52.514999999999993
     8   1      5.8350000000000009      46.679999999999993      52.514999999999993
     9   1      5.8350000000000009                  48.625                   50.57
    10   1      3.8900000000000001      46.679999999999993      54.459999999999994
    11   1      3.8900000000000001                  48.625      56.405000000000001
    12   1      5.8350000000000009      46.679999999999993      56.405000000000001
    13   1      5.8350000000000009                  48.625      54.459999999999994
    14   1      5.8350000000000009                  48.625      58.349999999999994
    15   1      3.8900000000000001      52.514999999999993                  48.625
    16   1      5.8350000000000009                   50.57                  48.625
    17   1      5.8350000000000009      52.514999999999993      46.679999999999993
    18   1      3.8900000000000001                   50.57                   50.57
    19   1      3.8900000000000001      52.514999999999993      52.514999999999993
    20   1      5.8350000000000009                   50.57      52.514999999999993
    21   1      5.8350000000000009      52.514999999999993                   50.57
    22   1      3.8900000000000001                   50.57      54.459999999999994
    23   1      3.8900000000000001      52.514999999999993      56.405000000000001
    24   1      5.8350000000000009                   50.57      56.405000000000001
    25   1      5.8350000000000009      52.514999999999993      54.459999999999994
    26   1      3.8900000000000001                   50.57      58.349999999999994
    27   1      3.8900000000000001      52.514999999999993      60.294999999999995
    28   1      5.8350000000000009                   50.57      60.294999999999995
    29   1      5.8350000000000009      52.514999999999993      58.349999999999994
    30   1      5.8350000000000009      52.514999999999993      62.239999999999988
    31   1      5.8350000000000009      54.459999999999994      44.734999999999999
    32   1      3.8900000000000001      54.459999999999994      46.679999999999993
    33   1      3.8900000000000001      56.405000000000001                  48.625
    34   1      5.8350000000000009      54.459999999999994                  48.625
    35   1      5.8350000000000009      56.405000000000001      46.679999999999993
    36   1      3.8900000000000001      54.459999999999994                   50.57
    37   1      3.8900000000000001      56.405000000000001      52.514999999999993
    38   1      5.8350000000000009      54.459999999999994      52.514999999999993
    39   1      5.8350000000000009      56.405000000000001                   50.57
    40   1      3.8900000000000001      54.459999999999994      54.459999999999994
    41   1      3.8900000000000001      56.405000000000001      56.405000000000001
    42   1      5.8350000000000009      54.459999999999994      56.405000000000001
    43   1      5.8350000000000009      56.405000000000001      54.459999999999994
    44   1      3.8900000000000001      54.459999999999994      58.349999999999994
    45   1      3.8900000000000001      56.405000000000001      60.294999999999995
    46   1      5.8350000000000009      54.459999999999994      60.294999999999995
    47   1      5.8350000000000009      56.405000000000001      58.349999999999994
    48   1      3.8900000000000001      54.459999999999994      62.239999999999988
    49   1      5.8350000000000009      54.459999999999994      64.184999999999988
    50   1      5.8350000000000009      56.405000000000001      62.239999999999988
    51   1      5.8350000000000009      58.349999999999994                  48.625
    52   1      3.8900000000000001      58.349999999999994                   50.57
    53   1      3.8900000000000001      60.294999999999995      52.514999999999993
    54   1      5.8350000000000009      58.349999999999994      52.514999999999993
    55   1      5.8350000000000009      60.294999999999995                   50.57
    56   1      3.8900000000000001      58.349999999999994      54.459999999999994
    57   1      3.8900000000000001      60.294999999999995      56.405000000000001
    58   1      5.8350000000000009      58.349999999999994      56.405000000000001
    59   1      5.8350000000000009      60.294999999999995      54.459999999999994
    60   1      3.8900000000000001      58.349999999999994      58.349999999999994
    61   1      5.8350000000000009      58.349999999999994      60.294999999999995
    62   1      5.8350000000000009      60.294999999999995      58.349999999999994
    63   1      5.8350000000000009      62.239999999999988      52.514999999999993
    64   1      3.8900000000000001      62.239999999999988      54.459999999999994
    65   1      5.8350000000000009      62.239999999999988      56.405000000000001
    66   1      5.8350000000000009      64.184999999999988      54.459999999999994
    67   1      9.7250000000000014      36.954999999999998      54.459999999999994
    68   1      7.7800000000000002      40.844999999999992      52.514999999999993
    69   1      9.7250000000000014      38.899999999999999      52.514999999999993
    70   1      9.7250000000000014      40.844999999999992                   50.57
    71   1      7.7800000000000002      38.899999999999999      54.459999999999994
    72   1      7.7800000000000002      40.844999999999992      56.405000000000001
    73   1      9.7250000000000014      38.899999999999999      56.405000000000001
    74   1      9.7250000000000014      40.844999999999992      54.459999999999994
    75   1      9.7250000000000014      40.844999999999992      58.349999999999994
    76   1      7.7800000000000002      44.734999999999999                  48.625
    77   1      9.7250000000000014      42.789999999999999                  48.625
    78   1      9.7250000000000014      44.734999999999999      46.679999999999993
    79   1      7.7800000000000002      42.789999999999999                   50.57
    80   1      7.7800000000000002      44.734999999999999      52.514999999999993
    81   1      9.7250000000000014      42.789999999999999      52.514999999999993
    82   1      9.7250000000000014      44.734999999999999                   50.57
    83   1      7.7800000000000002      42.789999999999999      54.459999999999994
    84   1      7.7800000000000002      44.734999999999999      56.405000000000001
    85   1      9.7250000000000014      42.789999999999999      56.405000000000001
    86   1      9.7250000000000014      44.734999999999999      54.459999999999994
    87   1      7.7800000000000002      42.789999999999999      58.349999999999994
    88   1      7.7800000000000002      44.734999999999999      60.294999999999995
    89   1      9.7250000000000014      42.789999999999999      60.294999999999995
    90   1      9.7250000000000014      44.734999999999999      58.349999999999994
    91   1      9.7250000000000014      44.734999999999999      62.239999999999988
    92   1      7.7800000000000002                  48.625      44.734999999999999
    93   1      9.7250000000000014      46.679999999999993      44.734999999999999
    94   1      9.7250000000000014                  48.625      42.789999999999999
    95   1      7.7800000000000002      46.679999999999993      46.679999999999993
    96   1      7.7800000000000002                  48.625                  48.625
    97   1      9.7250000000000014      46.679999999999993                  48.625
    98   1      9.7250000000000014                  48.625      46.679999999999993
    99   1      7.7800000000000002      46.679999999999993                   50.57
   100   1      7.7800000000000002                  48.625      52.514999999999993
   101   1      9.7250000000000014      46.679999999999993      52.514999999999993
   102   1      9.7250000000000014                  48.625                   50.57
   103   1      7.7800000000000002      46.679999999999993      54.459999999999994
   104   1      7.7800000000000002                  48.625      56.405000000000001
   105   1      9.7250000000000014      46.679999999999993      56.405000000000001
   106   1      9.7250000000000014                  48.625      54.459999999999994
   107   1      7.7800000000000002      46.679999999999993      58.349999999999994
   108   1      7.7800000000000002                  48.625      60.294999999999995
   109   1      9.7250000000000014      46.679999999999993      60.294999999999995
   110   1      9.7250000000000014                  48.625      58.349999999999994
   111   1      7.7800000000000002      46.679999999999993      62.239999999999988
   112   1      7.7800000000000002                  48.625      64.184999999999988
   113   1      9.7250000000000014      46.679999999999993      64.184999999999988
   114   1      9.7250000000000014                  48.625      62.239999999999988
   115   1      9.7250000000000014                  48.625      66.129999999999995
   116   1      7.7800000000000002      52.514999999999993      40.844999999999992
   117   1      9.7250000000000014                   50.57      40.844999999999992
   118   1      9.7250000000000014      52.514999999999993      38.899999999999999
   119   1      7.7800000000000002                   50.57      42.789999999999999
   120   1      7.7800000000000002      52.514999999999993      44.734999999999999
   121   1      9.7250000000000014                   50.57      44.734999999999999
   122   1      9.7250000000000014      52.514999999999993      42.789999999999999
   123   1      7.7800000000000002                   50.57      46.679999999999993
   124   1      7.7800000000000002      52.514999999999993                  48.625
   125   1      9.7250000000000014                   50.57                  48.625
   126   1      9.7250000000000014      52.514999999999993      46.679999999999993
   127   1      7.7800000000000002                   50.57                   50.57
   128   1      7.7800000000000002      52.514999999999993      52.514999999999993
   129   1      9.7250000000000014                   50.57      52.514999999999993
   130   1      9.7250000000000014      52.514999999999993                   50.57
   131   1      7.7800000000000002                   50.57      54.459999999999994
   132   1      7.7800000000000002      52.514999999999993      56.405000000000001
   133   1      9.7250000000000014                   50.57      56.405000000000001
   134   1      9.7250000000000014      52.514999999999993      54.459999999999994
   135   1      7.7800000000000002                   50.57      58.349999999999994
   136   1      7.7800000000000002      52.514999999999993      60.294999999999995
   137   1      9.7250000000000014                   50.57      60.294999999999995
   138   1      9.7250000000000014      52.514999999999993      58.349999999999994
   139   1      7.7800000000000002                   50.57      62.239999999999988
   140   1      7.7800000000000002      52.514999999999993      64.184999999999988
   141   1      9.7250000000000014                   50.57      64.184999999999988
   142   1      9.7250000000000014      52.514999999999993      62.239999999999988
   143   1      7.7800000000000002                   50.57      66.129999999999995
   144   1      7.7800000000000002      52.514999999999993      68.074999999999989
   145   1      9.7250000000000014                   50.57      68.074999999999989
   146   1      9.7250000000000014      52.514999999999993      66.129999999999995
   147   1      9.7250000000000014      52.514999999999993      70.019999999999982
   148   1      9.7250000000000014      54.459999999999994      36.954999999999998
   149   1      7.7800000000000002      54.459999999999994      38.899999999999999
   150   1      7.7800000000000002      56.405000000000001      40.844999999999992
   151   1      9.7250000000000014      54.459999999999994      40.844999999999992
   152   1      9.7250000000000014      56.405000000000001      38.899999999999999
   153   1      7.7800000000000002      54.459999999999994      42.789999999999999
   154   1      7.7800000000000002      56.405000000000001      44.734999999999999
   155   1      9.7250000000000014      54.459999999999994      44.734999999999999
   156   1      9.7250000000000014      56.405000000000001      42.789999999999999
   157   1      7.7800000000000002      54.459999999999994      46.679999999999993
   158   1      7.7800000000000002      56.405000000000001                  48.625
   159   1      9.7250000000000014      54.459999999999994                  48.625
   160   1      9.7250000000000014      56.405000000000001      46.679999999999993
   161   1      7.7800000000000002      54.459999999999994                   50.57
   162   1      7.7800000000000002      56.405000000000001      52.514999999999993
   163   1      9.7250000000000014      54.459999999999994      52.514999999999993
   164   1      9.7250000000000014      56.405000000000001                   50.57
   165   1      7.7800000000000002      54.459999999999994      54.459999999999994
   166   1      7.7800000000000002      56.405000000000001      56.405000000000001
   167   1      9.7250000000000014      54.459999999999994      56.405000000000001
   168   1      9.7250000000000014      56.405000000000001      54.459999999999994
   169   1      7.7800000000000002      54.459999999999994      58.349999999999994
   170   1      7.7800000000000002      56.405000000000001      60.294999999999995
   171   1      9.7250000000000014      54.459999999999994      60.294999999999995
   172   1      9.7250000000000014      56.405000000000001      58.349999999999994
   173   1      7.7800000000000002      54.459999999999994      62.239999999999988
   174   1      7.7800000000000002      56.405000000000001      64.184999999999988
   175   1      9.7250000000000014      54.459999999999994      64.184999999999988
   176   1      9.7250000000000014      56.405000000000001      62.239999999999988
   177   1      7.7800000000000002      54.459999999999994      66.129999999999995
   178   1      7.7800000000000002      56.405000000000001      68.074999999999989
   179   1      9.7250000000000014      54.459999999999994      68.074999999999989
   180   1      9.7250000000000014      56.405000000000001      66.129999999999995
   181   1      7.7800000000000002      54.459999999999994      70.019999999999982
   182   1      9.7250000000000014      54.459999999999994      71.964999999999989
   183   1      9.7250000000000014      56.405000000000001      70.019999999999982
   184   1      9.7250000000000014      58.349999999999994      40.844999999999992
   185   1      7.7800000000000002      58.349999999999994      42.789999999999999
   186   1      7.7800000000000002      60.294999999999995      44.734999999999999
   187   1      9.7250000000000014      58.349999999999994      44.734999999999999
   188   1      9.7250000000000014      60.294999999999995      42.789999999999999
   189   1      7.7800000000000002      58.349999999999994      46.679999999999993
   190   1      7.7800000000000002      60.294999999999995                  48.625
   191   1      9.7250000000000014      58.349999999999994                  48.625
   192   1      9.7250000000000014      60.294999999999995      46.679999999999993
   193   1      7.7800000000000002      58.349999999999994                   50.57
   194   1      7.7800000000000002      60.294999999999995      52.514999999999993
   195   1      9.7250000000000014      58.349999999999994      52.514999999999993
   196   1      9.7250000000000014      60.294999999999995                   50.57
   197   1      7.7800000000000002      58.349999999999994      54.459999999999994
   198   1      7.7800000000000002      60.294999999999995      56.405000000000001
   199   1      9.7250000000000014      58.349999999999994      56.405000000000001
   200   1      9.7250000000000014      60.294999999999995      54.459999999999994
   201   1      7.7800000000000002      58.349999999999994      58.349999999999994
   202   1      7.7800000000000002      60.294999999999995      60.294999999999995
   203   1      9.7250000000000014      58.349999999999994      60.294999999999995
   204   1      9.7250000000000014      60.294999999999995      58.349999999999994
   205   1      7.7800000000000002      58.349999999999994      62.239999999999988
   206   1      7.7800000000000002      60.294999999999995      64.184999999999988
   207   1      9.7250000000000014      58.349999999999994      64.184999999999988
   208   1      9.7250000000000014      60.294999999999995      62.239999999999988
   209   1      7.7800000000000002      58.349999999999994      66.129999999999995
   210   1      9.7250000000000014      58.349999999999994      68.074999999999989
   211   1      9.7250000000000014      60.294999999999995      66.129999999999995
   212   1      9.7250000000000014      62.239999999999988      44.734999999999999
   213   1      7.7800000000000002      62.239999999999988      46.679999999999993
   214   1      7.7800000000000002      64.184999999999988                  48.625
   215   1      9.7250000000000014      62.239999999999988                  48.625
   216   1      9.7250000000000014      64.184999999999988      46.679999999999993
   217   1      7.7800000000000002      62.239999999999988                   50.57
   218   1      7.7800000000000002      64.184999999999988      52.514999999999993
   219   1      9.7250000000000014      62.239999999999988      52.514999999999993
   220   1      9.7250000000000014      64.184999999999988                   50.57
   221   1      7.7800000000000002      62.239999999999988      54.459999999999994
   222   1      7.7800000000000002      64.184999999999988      56.405000000000001
   223   1      9.7250000000000014      62.239999999999988      56.405000000000001
   224   1      9.7250000000000014      64.184999999999988      54.459999999999994
   225   1      7.7800000000000002      62.239999999999988      58.349999999999994
   226   1      7.7800000000000002      64.184999999999988      60.294999999999995
   227   1      9.7250000000000014      62.239999999999988      60.294999999999995
   228   1      9.7250000000000014      64.184999999999988      58.349999999999994
   229   1      7.7800000000000002      62.239999999999988      62.239999999999988
   230   1      9.7250000000000014      62.239999999999988      64.184999999999988
   231   1      9.7250000000000014      64.184999999999988      62.239999999999988
   232   1      9.7250000000000014      66.129999999999995                  48.625
   233   1      7.7800000000000002      66.129999999999995                   50.57
   234   1      7.7800000000000002      68.074999999999989      52.514999999999993
   235   1      9.7250000000000014      66.129999999999995      52.514999999999993
   236   1      9.7250000000000014      68.074999999999989                   50.57
   237   1      7.7800000000000002      66.129999999999995      54.459999999999994
   238   1      7.7800000000000002      68.074999999999989      56.405000000000001
   239   1      9.7250000000000014      66.129999999999995      56.405000000000001
   240   1      9.7250000000000014      68.074999999999989      54.459999999999994
   241   1      7.7800000000000002      66.129999999999995      58.349999999999994
   242   1      9.7250000000000014      66.129999999999995      60.294999999999995
   243   1      9.7250000000000014      68.074999999999989      58.349999999999994
   244   1      9.7250000000000014      70.019999999999982      52.514999999999993
   245   1      7.7800000000000002      70.019999999999982      54.459999999999994
   246   1      9.7250000000000014      70.019999999999982      56.405000000000001
   247   1      9.7250000000000014      71.964999999999989      54.459999999999994
   248   1                  13.615      29.174999999999997      54.459999999999994
   249   1      11.670000000000002      33.064999999999998      52.514999999999993
   250   1                  13.615      31.119999999999994      52.514999999999993
   251   1                  13.615      33.064999999999998                   50.57
   252   1      11.670000000000002      31.119999999999994      54.459999999999994
   253   1      11.670000000000002      33.064999999999998      56.405000000000001
   254   1                  13.615      31.119999999999994      56.405000000000001
   255   1                  13.615      33.064999999999998      54.459999999999994
   256   1                  13.615      33.064999999999998      58.349999999999994
   257   1      11.670000000000002      36.954999999999998                  48.625
   258   1                  13.615      35.009999999999991                  48.625
   259   1                  13.615      36.954999999999998      46.679999999999993
   260   1      11.670000000000002      35.009999999999991                   50.57
   261   1      11.670000000000002      36.954999999999998      52.514999999999993
   262   1                  13.615      35.009999999999991      52.514999999999993
   263   1                  13.615      36.954999999999998                   50.57
   264   1      11.670000000000002      35.009999999999991      54.459999999999994
   265   1      11.670000000000002      36.954999999999998      56.405000000000001
   266   1                  13.615      35.009999999999991      56.405000000000001
   267   1                  13.615      36.954999999999998      54.459999999999994
   268   1      11.670000000000002      35.009999999999991      58.349999999999994
   269   1      11.670000000000002      36.954999999999998      60.294999999999995
   270   1                  13.615      35.009999999999991      60.294999999999995
   271   1                  13.615      36.954999999999998      58.349999999999994
   272   1                  13.615      36.954999999999998      62.239999999999988
   273   1      11.670000000000002      40.844999999999992      44.734999999999999
   274   1                  13.615      38.899999999999999      44.734999999999999
   275   1                  13.615      40.844999999999992      42.789999999999999
   276   1      11.670000000000002      38.899999999999999      46.679999999999993
   277   1      11.670000000000002      40.844999999999992                  48.625
   278   1                  13.615      38.899999999999999                  48.625
   279   1                  13.615      40.844999999999992      46.679999999999993
   280   1      11.670000000000002      38.899999999999999                   50.57
   281   1      11.670000000000002      40.844999999999992      52.514999999999993
   282   1                  13.615      38.899999999999999      52.514999999999993
   283   1                  13.615      40.844999999999992                   50.57
   284   1      11.670000000000002      38.899999999999999      54.459999999999994
   285   1      11.670000000000002      40.844999999999992      56.405000000000001
   286   1                  13.615      38.899999999999999      56.405000000000001
   287   1                  13.615      40.844999999999992      54.459999999999994
   288   1      11.670000000000002      38.899999999999999      58.349999999999994
   289   1      11.670000000000002      40.844999999999992      60.294999999999995
   290   1                  13.615      38.899999999999999      60.294999999999995
   291   1                  13.615      40.844999999999992      58.349999999999994
   292   1      11.670000000000002      38.899999999999999      62.239999999999988
   293   1      11.670000000000002      40.844999999999992      64.184999999999988
   294   1                  13.615      38.899999999999999      64.184999999999988
   295   1                  13.615      40.844999999999992      62.239999999999988
   296   1                  13.615      40.844999999999992      66.129999999999995
   297   1      11.670000000000002      44.734999999999999      40.844999999999992
   298   1                  13.615      42.789999999999999      40.844999999999992
   299   1                  13.615      44.734999999999999      38.899999999999999
   300   1      11.670000000000002      42.789999999999999      42.789999999999999
   301   1      11.670000000000002      44.734999999999999      44.734999999999999
   302   1                  13.615      42.789999999999999      44.734999999999999
   303   1                  13.615      44.734999999999999      42.789999999999999
   304   1      11.670000000000002      42.789999999999999      46.679999999999993
   305   1      11.670000000000002      44.734999999999999                  48.625
   306   1                  13.615      42.789999999999999                  48.625
   307   1                  13.615      44.734999999999999      46.679999999999993
   308   1      11.670000000000002      42.789999999999999                   50.57
   309   1      11.670000000000002      44.734999999999999      52.514999999999993
   310   1                  13.615      42.789999999999999      52.514999999999993
   311   1                  13.615      44.734999999999999                   50.57
   312   1      11.670000000000002      42.789999999999999      54.459999999999994
   313   1      11.670000000000002      44.734999999999999      56.405000000000001
   314   1                  13.615      42.789999999999999      56.405000000000001
   315   1                  13.615      44.734999999999999      54.459999999999994
   316   1      11.670000000000002      42.789999999999999      58.349999999999994
   317   1      11.670000000000002      44.734999999999999      60.294999999999995
   318   1                  13.615      42.789999999999999      60.294999999999995
   319   1                  13.615      44.734999999999999      58.349999999999994
   320   1      11.670000000000002      42.789999999999999      62.239999999999988
   321   1      11.670000000000002      44.734999999999999      64.184999999999988
   322   1                  13.615      42.789999999999999      64.184999999999988
   323   1                  13.615      44.734999999999999      62.239999999999988
   324   1      11.670000000000002      42.789999999999999      66.129999999999995
   325   1      11.670000000000002      44.734999999999999      68.074999999999989
   326   1                  13.615      42.789999999999999      68.074999999999989
   327   1                  13.615      44.734999999999999      66.129999999999995
   328   1                  13.615      44.734999999999999      70.019999999999982
   329   1      11.670000000000002                  48.625      36.954999999999998
   330   1                  13.615      46.679999999999993      36.954999999999998
   331   1                  13.615                  48.625      35.009999999999991
   332   1      11.670000000000002      46.679999999999993      38.899999999999999
   333   1      11.670000000000002                  48.625      40.844999999999992
   334   1                  13.615      46.679999999999993      40.844999999999992
   335   1                  13.615                  48.625      38.899999999999999
   336   1      11.670000000000002      46.679999999999993      42.789999999999999
   337   1      11.670000000000002                  48.625      44.734999999999999
   338   1                  13.615      46.679999999999993      44.734999999999999
   339   1                  13.615                  48.625      42.789999999999999
   340   1      11.670000000000002      46.679999999999993      46.679999999999993
   341   1      11.670000000000002                  48.625                  48.625
   342   1                  13.615      46.679999999999993                  48.625
   343   1                  13.615                  48.625      46.679999999999993
   344   1      11.670000000000002      46.679999999999993                   50.57
   345   1      11.670000000000002                  48.625      52.514999999999993
   346   1                  13.615      46.679999999999993      52.514999999999993
   347   1                  13.615                  48.625                   50.57
   348   1      11.670000000000002      46.679999999999993      54.459999999999994
   349   1      11.670000000000002                  48.625      56.405000000000001
   350   1                  13.615      46.679999999999993      56.405000000000001
   351   1                  13.615                  48.625      54.459999999999994
   352   1      11.670000000000002      46.679999999999993      58.349999999999994
   353   1      11.670000000000002                  48.625      60.294999999999995
   354   1                  13.615      46.679999999999993      60.294999999999995
   355   1                  13.615                  48.625      58.349999999999994
   356   1      11.670000000000002      46.679999999999993      62.239999999999988
   357   1      11.670000000000002                  48.625      64.184999999999988
   358   1                  13.615      46.679999999999993      64.184999999999988