LAMMPS data file via write_data, version 30 Nov 2020, timestep = 0

30729 atoms
5 atom types

0 114 xlo xhi
0 114 ylo yhi
0 114 zlo zhi

Masses

1 58.7
2 55.8
3 52
4 59
5 63

Atoms # atomic

6 2 5.35499999999999 51.764999999999986 53.54999999999999 0 0 0
9 2 5.35499999999999 53.54999999999999 51.764999999999986 0 0 0
10 5 3.569999999999993 53.54999999999999 53.54999999999999 0 0 0
11 2 3.569999999999993 55.33499999999998 55.33499999999998 0 0 0
12 5 5.35499999999999 53.54999999999999 55.33499999999998 0 0 0
13 4 5.35499999999999 55.33499999999998 53.54999999999999 0 0 0
43 3 8.92499999999999 48.19499999999998 53.54999999999999 0 0 0
46 5 7.139999999999993 51.764999999999986 51.764999999999986 0 0 0
47 2 8.92499999999999 49.97999999999998 51.764999999999986 0 0 0
48 5 8.92499999999999 51.764999999999986 49.97999999999998 0 0 0
49 4 7.139999999999993 49.97999999999998 53.54999999999999 0 0 0
50 3 7.139999999999993 51.764999999999986 55.33499999999998 0 0 0
51 4 8.92499999999999 49.97999999999998 55.33499999999998 0 0 0
52 1 8.92499999999999 51.764999999999986 53.54999999999999 0 0 0
62 3 8.92499999999999 53.54999999999999 48.19499999999998 0 0 0
63 4 7.139999999999993 53.54999999999999 49.97999999999998 0 0 0
64 1 7.139999999999993 55.33499999999998 51.764999999999986 0 0 0
65 1 8.92499999999999 53.54999999999999 51.764999999999986 0 0 0
66 2 8.92499999999999 55.33499999999998 49.97999999999998 0 0 0
67 1 7.139999999999993 53.54999999999999 53.54999999999999 0 0 0
68 4 7.139999999999993 55.33499999999998 55.33499999999998 0 0 0
69 4 8.92499999999999 53.54999999999999 55.33499999999998 0 0 0
70 3 8.92499999999999 55.33499999999998 53.54999999999999 0 0 0
132 5 12.49499999999999 44.624999999999986 53.54999999999999 0 0 0
135 3 10.709999999999994 48.19499999999998 48.19499999999998 0 0 0
136 4 12.49499999999999 46.40999999999999 48.19499999999998 0 0 0
137 5 12.49499999999999 48.19499999999998 46.40999999999999 0 0 0
138 4 10.709999999999994 48.19499999999998 51.764999999999986 0 0 0
139 4 12.49499999999999 46.40999999999999 51.764999999999986 0 0 0
140 5 12.49499999999999 48.19499999999998 49.97999999999998 0 0 0
141 1 10.709999999999994 46.40999999999999 53.54999999999999 0 0 0
142 3 10.709999999999994 48.19499999999998 55.33499999999998 0 0 0
143 1 12.49499999999999 46.40999999999999 55.33499999999998 0 0 0
144 2 12.49499999999999 48.19499999999998 53.54999999999999 0 0 0
157 3 10.709999999999994 51.764999999999986 48.19499999999998 0 0 0
158 1 12.49499999999999 49.97999999999998 48.19499999999998 0 0 0
159 4 12.49499999999999 51.764999999999986 46.40999999999999 0 0 0
160 5 10.709999999999994 49.97999999999998 49.97999999999998 0 0 0
161 4 10.709999999999994 51.764999999999986 51.764999999999986 0 0 0
162 1 12.49499999999999 49.97999999999998 51.764999999999986 0 0 0
163 4 12.49499999999999 51.764999999999986 49.97999999999998 0 0 0
164 4 10.709999999999994 49.97999999999998 53.54999999999999 0 0 0
165 1 10.709999999999994 51.764999999999986 55.33499999999998 0 0 0
166 1 12.49499999999999 49.97999999999998 55.33499999999998 0 0 0
167 4 12.49499999999999 51.764999999999986 53.54999999999999 0 0 0
181 5 12.49499999999999 53.54999999999999 44.624999999999986 0 0 0
182 5 10.709999999999994 53.54999999999999 46.40999999999999 0 0 0
183 5 10.709999999999994 55.33499999999998 48.19499999999998 0 0 0
184 1 12.49499999999999 53.54999999999999 48.19499999999998 0 0 0
185 4 12.49499999999999 55.33499999999998 46.40999999999999 0 0 0
186 1 10.709999999999994 53.54999999999999 49.97999999999998 0 0 0
187 4 10.709999999999994 55.33499999999998 51.764999999999986 0 0 0
188 2 12.49499999999999 53.54999999999999 51.764999999999986 0 0 0
189 3 12.49499999999999 55.33499999999998 49.97999999999998 0 0 0
190 5 10.709999999999994 53.54999999999999 53.54999999999999 0 0 0
191 3 10.709999999999994 55.33499999999998 55.33499999999998 0 0 0
192 5 12.49499999999999 53.54999999999999 55.33499999999998 0 0 0
193 1 12.49499999999999 55.33499999999998 53.54999999999999 0 0 0
301 3 16.06499999999999 41.05499999999998 53.54999999999999 0 0 0
304 3 14.279999999999985 44.624999999999986 48.19499999999998 0 0 0
305 5 16.06499999999999 42.83999999999998 48.19499999999998 0 0 0
306 4 16.06499999999999 44.624999999999986 46.40999999999999 0 0 0
307 2 14.279999999999985 44.624999999999986 51.764999999999986 0 0 0
308 5 16.06499999999999 42.83999999999998 51.764999999999986 0 0 0
309 5 16.06499999999999 44.624999999999986 49.97999999999998 0 0 0
310 5 14.279999999999985 42.83999999999998 53.54999999999999 0 0 0
311 4 14.279999999999985 44.624999999999986 55.33499999999998 0 0 0
312 1 16.06499999999999 42.83999999999998 55.33499999999998 0 0 0
313 4 16.06499999999999 44.624999999999986 53.54999999999999 0 0 0
326 2 14.279999999999985 48.19499999999998 44.624999999999986 0 0 0
327 4 16.06499999999999 46.40999999999999 44.624999999999986 0 0 0
328 3 16.06499999999999 48.19499999999998 42.83999999999998 0 0 0
329 4 14.279999999999985 46.40999999999999 46.40999999999999 0 0 0
330 3 14.279999999999985 48.19499999999998 48.19499999999998 0 0 0
331 4 16.06499999999999 46.40999999999999 48.19499999999998 0 0 0
332 4 16.06499999999999 48.19499999999998 46.40999999999999 0 0 0
333 3 14.279999999999985 46.40999999999999 49.97999999999998 0 0 0
334 3 14.279999999999985 48.19499999999998 51.764999999999986 0 0 0
335 5 16.06499999999999 46.40999999999999 51.764999999999986 0 0 0
336 2 16.06499999999999 48.19499999999998 49.97999999999998 0 0 0
337 4 14.279999999999985 46.40999999999999 53.54999999999999 0 0 0
338 3 14.279999999999985 48.19499999999998 55.33499999999998 0 0 0
339 3 16.06499999999999 46.40999999999999 55.33499999999998 0 0 0
340 2 16.06499999999999 48.19499999999998 53.54999999999999 0 0 0
358 2 14.279999999999985 51.764999999999986 44.624999999999986 0 0 0
359 5 16.06499999999999 49.97999999999998 44.624999999999986 0 0 0
360 5 16.06499999999999 51.764999999999986 42.83999999999998 0 0 0
361 3 14.279999999999985 49.97999999999998 46.40999999999999 0 0 0
362 1 14.279999999999985 51.764999999999986 48.19499999999998 0 0 0
363 2 16.06499999999999 49.97999999999998 48.19499999999998 0 0 0
364 2 16.06499999999999 51.764999999999986 46.40999999999999 0 0 0
365 3 14.279999999999985 49.97999999999998 49.97999999999998 0 0 0
366 2 14.279999999999985 51.764999999999986 51.764999999999986 0 0 0
367 3 16.06499999999999 49.97999999999998 51.764999999999986 0 0 0
368 3 16.06499999999999 51.764999999999986 49.97999999999998 0 0 0
369 2 14.279999999999985 49.97999999999998 53.54999999999999 0 0 0
370 3 14.279999999999985 51.764999999999986 55.33499999999998 0 0 0
371 3 16.06499999999999 49.97999999999998 55.33499999999998 0 0 0
372 1 16.06499999999999 51.764999999999986 53.54999999999999 0 0 0
390 3 16.06499999999999 53.54999999999999 41.05499999999998 0 0 0
391 5 14.279999999999985 53.54999999999999 42.83999999999998 0 0 0
392 2 14.279999999999985 55.33499999999998 44.624999999999986 0 0 0
393 5 16.06499999999999 53.54999999999999 44.624999999999986 0 0 0
394 3 16.06499999999999 55.33499999999998 42.83999999999998 0 0 0
395 3 14.279999999999985 53.54999999999999 46.40999999999999 0 0 0
396 2 14.279999999999985 55.33499999999998 48.19499999999998 0 0 0
397 4 16.06499999999999 53.54999999999999 48.19499999999998 0 0 0
398 5 16.06499999999999 55.33499999999998 46.40999999999999 0 0 0
399 3 14.279999999999985 53.54999999999999 49.97999999999998 0 0 0
400 5 14.279999999999985 55.33499999999998 51.764999999999986 0 0 0
401 3 16.06499999999999 53.54999999999999 51.764999999999986 0 0 0
402 1 16.06499999999999 55.33499999999998 49.97999999999998 0 0 0
403 5 14.279999999999985 53.54999999999999 53.54999999999999 0 0 0
404 3 14.279999999999985 55.33499999999998 55.33499999999998 0 0 0
405 4 16.06499999999999 53.54999999999999 55.33499999999998 0 0 0
406 3 16.06499999999999 55.33499999999998 53.54999999999999 0 0 0
570 1 19.63499999999999 37.484999999999985 53.54999999999999 0 0 0
573 2 19.63499999999999 41.05499999999998 42.83999999999998 0 0 0
574 3 17.84999999999999 41.05499999999998 48.19499999999998 0 0 0
575 4 19.63499999999999 39.26999999999999 48.19499999999998 0 0 0
576 1 19.63499999999999 41.05499999999998 46.40999999999999 0 0 0
577 1 17.84999999999999 41.05499999999998 51.764999999999986 0 0 0
578 2 19.63499999999999 39.26999999999999 51.764999999999986 0 0 0
579 2 19.63499999999999 41.05499999999998 49.97999999999998 0 0 0
580 4 17.84999999999999 39.26999999999999 53.54999999999999 0 0 0
581 5 17.84999999999999 41.05499999999998 55.33499999999998 0 0 0
582 5 19.63499999999999 39.26999999999999 55.33499999999998 0 0 0
583 4 19.63499999999999 41.05499999999998 53.54999999999999 0 0 0
597 3 19.63499999999999 42.83999999999998 41.05499999999998 0 0 0
598 1 17.84999999999999 42.83999999999998 42.83999999999998 0 0 0
599 4 17.84999999999999 44.624999999999986 44.624999999999986 0 0 0
600 4 19.63499999999999 42.83999999999998 44.624999999999986 0 0 0
601 3 19.63499999999999 44.624999999999986 42.83999999999998 0 0 0
602 2 17.84999999999999 42.83999999999998 46.40999999999999 0 0 0
603 3 17.84999999999999 44.624999999999986 48.19499999999998 0 0 0
604 5 19.63499999999999 42.83999999999998 48.19499999999998 0 0 0
605 4 19.63499999999999 44.624999999999986 46.40999999999999 0 0 0
606 4 17.84999999999999 42.83999999999998 49.97999999999998 0 0 0
607 5 17.84999999999999 44.624999999999986 51.764999999999986 0 0 0
608 4 19.63499999999999 42.83999999999998 51.764999999999986 0 0 0
609 2 19.63499999999999 44.624999999999986 49.97999999999998 0 0 0
610 5 17.84999999999999 42.83999999999998 53.54999999999999 0 0 0
611 5 17.84999999999999 44.624999999999986 55.33499999999998 0 0 0
612 2 19.63499999999999 42.83999999999998 55.33499999999998 0 0 0
613 5 19.63499999999999 44.624999999999986 53.54999999999999 0 0 0
633 1 17.84999999999999 48.19499999999998 41.05499999999998 0 0 0
634 5 19.63499999999999 46.40999999999999 41.05499999999998 0 0 0
635 3 19.63499999999999 48.19499999999998 39.26999999999999 0 0 0
636 3 17.84999999999999 46.40999999999999 42.83999999999998 0 0 0
637 2 17.84999999999999 48.19499999999998 44.624999999999986 0 0 0
638 1 19.63499999999999 46.40999999999999 44.624999999999986 0 0 0
639 1 19.63499999999999 48.19499999999998 42.83999999999998 0 0 0
640 4 17.84999999999999 46.40999999999999 46.40999999999999 0 0 0
641 4 17.84999999999999 48.19499999999998 48.19499999999998 0 0 0
642 3 19.63499999999999 46.40999999999999 48.19499999999998 0 0 0
643 1 19.63499999999999 48.19499999999998 46.40999999999999 0 0 0
644 3 17.84999999999999 46.40999999999999 49.97999999999998 0 0 0
645 3 17.84999999999999 48.19499999999998 51.764999999999986 0 0 0
646 5 19.63499999999999 46.40999999999999 51.764999999999986 0 0 0
647 5 19.63499999999999 48.19499999999998 49.97999999999998 0 0 0
648 4 17.84999999999999 46.40999999999999 53.54999999999999 0 0 0
649 1 17.84999999999999 48.19499999999998 55.33499999999998 0 0 0
650 5 19.63499999999999 46.40999999999999 55.33499999999998 0 0 0
651 3 19.63499999999999 48.19499999999998 53.54999999999999 0 0 0
673 1 17.84999999999999 51.764999999999986 41.05499999999998 0 0 0
674 1 19.63499999999999 49.97999999999998 41.05499999999998 0 0 0
675 4 19.63499999999999 51.764999999999986 39.26999999999999 0 0 0
676 5 17.84999999999999 49.97999999999998 42.83999999999998 0 0 0
677 3 17.84999999999999 51.764999999999986 44.624999999999986 0 0 0
678 2 19.63499999999999 49.97999999999998 44.624999999999986 0 0 0
679 4 19.63499999999999 51.764999999999986 42.83999999999998 0 0 0
680 2 17.84999999999999 49.97999999999998 46.40999999999999 0 0 0
681 5 17.84999999999999 51.764999999999986 48.19499999999998 0 0 0
682 1 19.63499999999999 49.97999999999998 48.19499999999998 0 0 0
683 5 19.63499999999999 51.764999999999986 46.40999999999999 0 0 0
684 4 17.84999999999999 49.97999999999998 49.97999999999998 0 0 0
685 5 17.84999999999999 51.764999999999986 51.764999999999986 0 0 0
686 1 19.63499999999999 49.97999999999998 51.764999999999986 0 0 0
687 5 19.63499999999999 51.764999999999986 49.97999999999998 0 0 0
688 3 17.84999999999999 49.97999999999998 53.54999999999999 0 0 0
689 4 17.84999999999999 51.764999999999986 55.33499999999998 0 0 0
690 4 19.63499999999999 49.97999999999998 55.33499999999998 0 0 0
691 2 19.63499999999999 51.764999999999986 53.54999999999999 0 0 0
713 5 19.63499999999999 53.54999999999999 37.484999999999985 0 0 0
714 2 17.84999999999999 53.54999999999999 39.26999999999999 0 0 0
715 5 17.84999999999999 55.33499999999998 41.05499999999998 0 0 0
716 4 19.63499999999999 53.54999999999999 41.05499999999998 0 0 0
717 3 19.63499999999999 55.33499999999998 39.26999999999999 0 0 0
718 4 17.84999999999999 53.54999999999999 42.83999999999998 0 0 0
719 3 17.84999999999999 55.33499999999998 44.624999999999986 0 0 0
720 5 19.63499999999999 53.54999999999999 44.624999999999986 0 0 0
721 3 19.63499999999999 55.33499999999998 42.83999999999998 0 0 0
722 3 17.84999999999999 53.54999999999999 46.40999999999999 0 0 0
723 4 17.84999999999999 55.33499999999998 48.19499999999998 0 0 0
724 2 19.63499999999999 53.54999999999999 48.19499999999998 0 0 0
725 4 19.63499999999999 55.33499999999998 46.40999999999999 0 0 0
726 4 17.84999999999999 53.54999999999999 49.97999999999998 0 0 0
727 4 17.84999999999999 55.33499999999998 51.764999999999986 0 0 0
728 4 19.63499999999999 53.54999999999999 51.764999999999986 0 0 0
729 3 19.63499999999999 55.33499999999998 49.97999999999998 0 0 0
730 2 17.84999999999999 53.54999999999999 53.54999999999999 0 0 0
731 4 17.84999999999999 55.33499999999998 55.33499999999998 0 0 0
732 1 19.63499999999999 53.54999999999999 55.33499999999998 0 0 0
733 5 19.63499999999999 55.33499999999998 53.54999999999999 0 0 0
967 5 23.20499999999999 33.914999999999985 53.54999999999999 0 0 0
970 1 23.20499999999999 37.484999999999985 42.83999999999998 0 0 0
971 3 21.419999999999987 37.484999999999985 48.19499999999998 0 0 0
972 3 23.20499999999999 35.69999999999998 48.19499999999998 0 0 0
973 4 23.20499999999999 37.484999999999985 46.40999999999999 0 0 0
974 3 21.419999999999987 37.484999999999985 51.764999999999986 0 0 0
975 3 23.20499999999999 35.69999999999998 51.764999999999986 0 0 0
976 2 23.20499999999999 37.484999999999985 49.97999999999998 0 0 0
977 2 21.419999999999987 35.69999999999998 53.54999999999999 0 0 0
978 3 21.419999999999987 37.484999999999985 55.33499999999998 0 0 0
979 2 23.20499999999999 35.69999999999998 55.33499999999998 0 0 0
980 1 23.20499999999999 37.484999999999985 53.54999999999999 0 0 0
994 5 21.419999999999987 41.05499999999998 41.05499999999998 0 0 0
995 1 23.20499999999999 39.26999999999999 41.05499999999998 0 0 0
996 1 23.20499999999999 41.05499999999998 39.26999999999999 0 0 0
997 1 21.419999999999987 39.26999999999999 42.83999999999998 0 0 0
998 4 21.419999999999987 41.05499999999998 44.624999999999986 0 0 0
999 5 23.20499999999999 39.26999999999999 44.624999999999986 0 0 0
1000 2 23.20499999999999 41.05499999999998 42.83999999999998 0 0 0
1001 4 21.419999999999987 39.26999999999999 46.40999999999999 0 0 0
1002 2 21.419999999999987 41.05499999999998 48.19499999999998 0 0 0
1003 4 23.20499999999999 39.26999999999999 48.19499999999998 0 0 0
1004 1 23.20499999999999 41.05499999999998 46.40999999999999 0 0 0
1005 1 21.419999999999987 39.26999999999999 49.97999999999998 0 0 0
1006 5 21.419999999999987 41.05499999999998 51.764999999999986 0 0 0
1007 4 23.20499999999999 39.26999999999999 51.764999999999986 0 0 0
1008 2 23.20499999999999 41.05499999999998 49.97999999999998 0 0 0
1009 4 21.419999999999987 39.26999999999999 53.54999999999999 0 0 0
1010 3 21.419999999999987 41.05499999999998 55.33499999999998 0 0 0
1011 1 23.20499999999999 39.26999999999999 55.33499999999998 0 0 0
1012 1 23.20499999999999 41.05499999999998 53.54999999999999 0 0 0
1034 5 23.20499999999999 42.83999999999998 37.484999999999985 0 0 0
1035 4 21.419999999999987 42.83999999999998 39.26999999999999 0 0 0
1036 1 21.419999999999987 44.624999999999986 41.05499999999998 0 0 0
1037 3 23.20499999999999 42.83999999999998 41.05499999999998 0 0 0
1038 1 23.20499999999999 44.624999999999986 39.26999999999999 0 0 0
1039 3 21.419999999999987 42.83999999999998 42.83999999999998 0 0 0
1040 4 21.419999999999987 44.624999999999986 44.624999999999986 0 0 0
1041 1 23.20499999999999 42.83999999999998 44.624999999999986 0 0 0
1042 4 23.20499999999999 44.624999999999986 42.83999999999998 0 0 0
1043 5 21.419999999999987 42.83999999999998 46.40999999999999 0 0 0
1044 5 21.419999999999987 44.624999999999986 48.19499999999998 0 0 0
1045 4 23.20499999999999 42.83999999999998 48.19499999999998 0 0 0
1046 3 23.20499999999999 44.624999999999986 46.40999999999999 0 0 0
1047 4 21.419999999999987 42.83999999999998 49.97999999999998 0 0 0
1048 3 21.419999999999987 44.624999999999986 51.764999999999986 0 0 0
1049 4 23.20499999999999 42.83999999999998 51.764999999999986 0 0 0
1050 3 23.20499999999999 44.624999999999986 49.97999999999998 0 0 0
1051 1 21.419999999999987 42.83999999999998 53.54999999999999 0 0 0
1052 1 21.419999999999987 44.624999999999986 55.33499999999998 0 0 0
1053 2 23.20499999999999 42.83999999999998 55.33499999999998 0 0 0
1054 1 23.20499999999999 44.624999999999986 53.54999999999999 0 0 0
1078 2 21.419999999999987 48.19499999999998 37.484999999999985 0 0 0
1079 3 23.20499999999999 46.40999999999999 37.484999999999985 0 0 0
1080 5 23.20499999999999 48.19499999999998 35.69999999999998 0 0 0
1081 3 21.419999999999987 46.40999999999999 39.26999999999999 0 0 0
1082 2 21.419999999999987 48.19499999999998 41.05499999999998 0 0 0
1083 4 23.20499999999999 46.40999999999999 41.05499999999998 0 0 0
1084 5 23.20499999999999 48.19499999999998 39.26999999999999 0 0 0
1085 4 21.419999999999987 46.40999999999999 42.83999999999998 0 0 0
1086 4 21.419999999999987 48.19499999999998 44.624999999999986 0 0 0
1087 2 23.20499999999999 46.40999999999999 44.624999999999986 0 0 0
1088 2 23.20499999999999 48.19499999999998 42.83999999999998 0 0 0
1089 4 21.419999999999987 46.40999999999999 46.40999999999999 0 0 0
1090 3 21.419999999999987 48.19499999999998 48.19499999999998 0 0 0
1091 2 23.20499999999999 46.40999999999999 48.19499999999998 0 0 0
1092 5 23.20499999999999 48.19499999999998 46.40999999999999 0 0 0
1093 2 21.419999999999987 46.40999999999999 49.97999999999998 0 0 0
1094 2 21.419999999999987 48.19499999999998 51.764999999999986 0 0 0
1095 1 23.20499999999999 46.40999999999999 51.764999999999986 0 0 0
1096 1 23.20499999999999 48.19499999999998 49.97999999999998 0 0 0
1097 1 21.419999999999987 46.40999999999999 53.54999999999999 0 0 0
1098 5 21.419999999999987 48.19499999999998 55.33499999999998 0 0 0
1099 3 23.20499999999999 46.40999999999999 55.33499999999998 0 0 0
1100 5 23.20499999999999 48.19499999999998 53.54999999999999 0 0 0
1126 1 21.419999999999987 51.764999999999986 37.484999999999985 0 0 0
1127 5 23.20499999999999 49.97999999999998 37.484999999999985 0 0 0
1128 4 23.20499999999999 51.764999999999986 35.69999999999998 0 0 0
1129 1 21.419999999999987 49.97999999999998 39.26999999999999 0 0 0
1130 2 21.419999999999987 51.764999999999986 41.05499999999998 0 0 0
1131 2 23.20499999999999 49.97999999999998 41.05499999999998 0 0 0
1132 3 23.20499999999999 51.764999999999986 39.26999999999999 0 0 0
1133 4 21.419999999999987 49.97999999999998 42.83999999999998 0 0 0
1134 4 21.419999999999987 51.764999999999986 44.624999999999986 0 0 0
1135 4 23.20499999999999 49.97999999999998 44.624999999999986 0 0 0
1136 4 23.20499999999999 51.764999999999986 42.83999999999998 0 0 0
1137 3 21.419999999999987 49.97999999999998 46.40999999999999 0 0 0
1138 2 21.419999999999987 51.764999999999986 48.19499999999998 0 0 0
1139 4 23.20499999999999 49.97999999999998 48.19499999999998 0 0 0
1140 2 23.20499999999999 51.764999999999986 46.40999999999999 0 0 0
1141 4 21.419999999999987 49.97999999999998 49.97999999999998 0 0 0
1142 3 21.419999999999987 51.764999999999986 51.764999999999986 0 0 0
1143 4 23.20499999999999 49.97999999999998 51.764999999999986 0 0 0
1144 1 23.20499999999999 51.764999999999986 49.97999999999998 0 0 0
1145 1 21.419999999999987 49.97999999999998 53.54999999999999 0 0 0
1146 2 21.419999999999987 51.764999999999986 55.33499999999998 0 0 0
1147 1 23.20499999999999 49.97999999999998 55.33499999999998 0 0 0
1148 3 23.20499999999999 51.764999999999986 53.54999999999999 0 0 0
1174 2 23.20499999999999 53.54999999999999 33.914999999999985 0 0 0
1175 5 21.419999999999987 53.54999999999999 35.69999999999998 0 0 0
1176 4 21.419999999999987 55.33499999999998 37.484999999999985 0 0 0
1177 1 23.20499999999999 53.54999999999999 37.484999999999985 0 0 0
1178 3 23.20499999999999 55.33499999999998 35.69999999999998 0 0 0
1179 2 21.419999999999987 53.54999999999999 39.26999999999999 0 0 0
1180 4 21.419999999999987 55.33499999999998 41.05499999999998 0 0 0
1181 2 23.20499999999999 53.54999999999999 41.05499999999998 0 0 0
1182 1 23.20499999999999 55.33499999999998 39.26999999999999 0 0 0
1183 4 21.419999999999987 53.54999999999999 42.83999999999998 0 0 0
1184 1 21.419999999999987 55.33499999999998 44.624999999999986 0 0 0
1185 4 23.20499999999999 53.54999999999999 44.624999999999986 0 0 0
1186 5 23.20499999999999 55.33499999999998 42.83999999999998 0 0 0
1187 5 21.419999999999987 53.54999999999999 46.40999999999999 0 0 0
1188 2 21.419999999999987 55.33499999999998 48.19499999999998 0 0 0
1189 5 23.20499999999999 53.54999999999999 48.19499999999998 0 0 0
1190 5 23.20499999999999 55.33499999999998 46.40999999999999 0 0 0
1191 1 21.419999999999987 53.54999999999999 49.97999999999998 0 0 0
1192 5 21.419999999999987 55.33499999999998 51.764999999999986 0 0 0
1193 3 23.20499999999999 53.54999999999999 51.764999999999986 0 0 0
1194 5 23.20499999999999 55.33499999999998 49.97999999999998 0 0 0
1195 5 21.419999999999987 53.54999999999999 53.54999999999999 0 0 0
1196 3 21.419999999999987 55.33499999999998 55.33499999999998 0 0 0
1197 5 23.20499999999999 53.54999999999999 55.33499999999998 0 0 0
1198 1 23.20499999999999 55.33499999999998 53.54999999999999 0 0 0
1512 1 26.77499999999999 30.34499999999998 53.54999999999999 0 0 0
1515 4 26.77499999999999 33.914999999999985 42.83999999999998 0 0 0
1516 5 24.98999999999999 33.914999999999985 48.19499999999998 0 0 0
1517 2 26.77499999999999 32.12999999999999 48.19499999999998 0 0 0
1518 1 26.77499999999999 33.914999999999985 46.40999999999999 0 0 0
1519 3 24.98999999999999 33.914999999999985 51.764999999999986 0 0 0
1520 5 26.77499999999999 32.12999999999999 51.764999999999986 0 0 0
1521 2 26.77499999999999 33.914999999999985 49.97999999999998 0 0 0
1522 4 24.98999999999999 32.12999999999999 53.54999999999999 0 0 0
1523 1 24.98999999999999 33.914999999999985 55.33499999999998 0 0 0
1524 4 26.77499999999999 32.12999999999999 55.33499999999998 0 0 0
1525 1 26.77499999999999 33.914999999999985 53.54999999999999 0 0 0
1539 2 24.98999999999999 37.484999999999985 37.484999999999985 0 0 0
1540 4 26.77499999999999 35.69999999999998 37.484999999999985 0 0 0
1541 3 26.77499999999999 37.484999999999985 35.69999999999998 0 0 0
1542 2 24.98999999999999 37.484999999999985 41.05499999999998 0 0 0
1543 3 26.77499999999999 35.69999999999998 41.05499999999998 0 0 0
1544 5 26.77499999999999 37.484999999999985 39.26999999999999 0 0 0
1545 2 24.98999999999999 35.69999999999998 42.83999999999998 0 0 0
1546 2 24.98999999999999 37.484999999999985 44.624999999999986 0 0 0
1547 1 26.77499999999999 35.69999999999998 44.624999999999986 0 0 0
1548 1 26.77499999999999 37.484999999999985 42.83999999999998 0 0 0
1549 1 24.98999999999999 35.69999999999998 46.40999999999999 0 0 0
1550 1 24.98999999999999 37.484999999999985 48.19499999999998 0 0 0
1551 5 26.77499999999999 35.69999999999998 48.19499999999998 0 0 0
1552 1 26.77499999999999 37.484999999999985 46.40999999999999 0 0 0
1553 4 24.98999999999999 35.69999999999998 49.97999999999998 0 0 0
1554 5 24.98999999999999 37.484999999999985 51.764999999999986 0 0 0
1555 5 26.77499999999999 35.69999999999998 51.764999999999986 0 0 0
1556 5 26.77499999999999 37.484999999999985 49.97999999999998 0 0 0
1557 2 24.98999999999999 35.69999999999998 53.54999999999999 0 0 0
1558 3 24.98999999999999 37.484999999999985 55.33499999999998 0 0 0
1559 5 26.77499999999999 35.69999999999998 55.33499999999998 0 0 0
1560 4 26.77499999999999 37.484999999999985 53.54999999999999 0 0 0
1585 3 24.98999999999999 41.05499999999998 37.484999999999985 0 0 0
1586 4 26.77499999999999 39.26999999999999 37.484999999999985 0 0 0
1587 4 26.77499999999999 41.05499999999998 35.69999999999998 0 0 0
1588 3 24.98999999999999 39.26999999999999 39.26999999999999 0 0 0
1589 3 24.98999999999999 41.05499999999998 41.05499999999998 0 0 0
1590 3 26.77499999999999 39.26999999999999 41.05499999999998 0 0 0
1591 3 26.77499999999999 41.05499999999998 39.26999999999999 0 0 0
1592 3 24.98999999999999 39.26999999999999 42.83999999999998 0 0 0
1593 5 24.98999999999999 41.05499999999998 44.624999999999986 0 0 0
1594 3 26.77499999999999 39.26999999999999 44.624999999999986 0 0 0
1595 1 26.77499999999999 41.05499999999998 42.83999999999998 0 0 0
1596 5 24.98999999999999 39.26999999999999 46.40999999999999 0 0 0
1597 2 24.98999999999999 41.05499999999998 48.19499999999998 0 0 0
1598 5 26.77499999999999 39.26999999999999 48.19499999999998 0 0 0
1599 5 26.77499999999999 41.05499999999998 46.40999999999999 0 0 0
1600 1 24.98999999999999 39.26999999999999 49.97999999999998 0 0 0
1601 2 24.98999999999999 41.05499999999998 51.764999999999986 0 0 0
1602 5 26.77499999999999 39.26999999999999 51.764999999999986 0 0 0
1603 1 26.77499999999999 41.05499999999998 49.97999999999998 0 0 0
1604 1 24.98999999999999 39.26999999999999 53.54999999999999 0 0 0
1605 5 24.98999999999999 41.05499999999998 55.33499999999998 0 0 0
1606 5 26.77499999999999 39.26999999999999 55.33499999999998 0 0 0
1607 5 26.77499999999999 41.05499999999998 53.54999999999999 0 0 0
1633 5 26.77499999999999 42.83999999999998 33.914999999999985 0 0 0
1634 5 24.98999999999999 42.83999999999998 35.69999999999998 0 0 0
1635 2 24.98999999999999 44.624999999999986 37.484999999999985 0 0 0
1636 4 26.77499999999999 42.83999999999998 37.484999999999985 0 0 0
1637 4 26.77499999999999 44.624999999999986 35.69999999999998 0 0 0
1638 5 24.98999999999999 42.83999999999998 39.26999999999999 0 0 0
1639 3 24.98999999999999 44.624999999999986 41.05499999999998 0 0 0
1640 5 26.77499999999999 42.83999999999998 41.05499999999998 0 0 0
1641 2 26.77499999999999 44.624999999999986 39.26999999999999 0 0 0
1642 5 24.98999999999999 42.83999999999998 42.83999999999998 0 0 0
1643 3 24.98999999999999 44.624999999999986 44.624999999999986 0 0 0
1644 1 26.77499999999999 42.83999999999998 44.624999999999986 0 0 0
1645 5 26.77499999999999 44.624999999999986 42.83999999999998 0 0 0
1646 1 24.98999999999999 42.83999999999998 46.40999999999999 0 0 0
1647 1 24.98999999999999 44.624999999999986 48.19499999999998 0 0 0
1648 1 26.77499999999999 42.83999999999998 48.19499999999998 0 0 0
1649 4 26.77499999999999 44.624999999999986 46.40999999999999 0 0 0
1650 2 24.98999999999999 42.83999999999998 49.97999999999998 0 0 0
1651 3 24.98999999999999 44.624999999999986 51.764999999999986 0 0 0
1652 3 26.77499999999999 42.83999999999998 51.764999999999986 0 0 0
1653 2 26.77499999999999 44.624999999999986 49.97999999999998 0 0 0
1654 1 24.98999999999999 42.83999999999998 53.54999999999999 0 0 0
1655 5 24.98999999999999 44.624999999999986 55.33499999999998 0 0 0
1656 5 26.77499999999999 42.83999999999998 55.33499999999998 0 0 0
1657 5 26.77499999999999 44.624999999999986 53.54999999999999 0 0 0
1685 3 24.98999999999999 48.19499999999998 33.914999999999985 0 0 0
1686 3 26.77499999999999 46.40999999999999 33.914999999999985 0 0 0
1687 5 26.77499999999999 48.19499999999998 32.12999999999999 0 0 0
1688 1 24.98999999999999 46.40999999999999 35.69999999999998 0 0 0
1689 4 24.98999999999999 48.19499999999998 37.484999999999985 0 0 0
1690 3 26.77499999999999 46.40999999999999 37.484999999999985 0 0 0
1691 2 26.77499999999999 48.19499999999998 35.69999999999998 0 0 0
1692 5 24.98999999999999 46.40999999999999 39.26999999999999 0 0 0
1693 2 24.98999999999999 48.19499999999998 41.05499999999998 0 0 0
1694 1 26.77499999999999 46.40999999999999 41.05499999999998 0 0 0
1695 1 26.77499999999999 48.19499999999998 39.26999999999999 0 0 0
1696 3 24.98999999999999 46.40999999999999 42.83999999999998 0 0 0
1697 1 24.98999999999999 48.19499999999998 44.624999999999986 0 0 0
1698 2 26.77499999999999 46.40999999999999 44.624999999999986 0 0 0
1699 2 26.77499999999999 48.19499999999998 42.83999999999998 0 0 0
1700 5 24.98999999999999 46.40999999999999 46.40999999999999 0 0 0
1701 1 24.98999999999999 48.19499999999998 48.19499999999998 0 0 0
1702 1 26.77499999999999 46.40999999999999 48.19499999999998 0 0 0
1703 4 26.77499999999999 48.19499999999998 46.40999999999999 0 0 0
1704 3 24.98999999999999 46.40999999999999 49.97999999999998 0 0 0
1705 1 24.98999999999999 48.19499999999998 51.764999999999986 0 0 0
1706 5 26.77499999999999 46.40999999999999 51.764999999999986 0 0 0
1707 1 26.77499999999999 48.19499999999998 49.97999999999998 0 0 0
1708 2 24.98999999999999 46.40999999999999 53.54999999999999 0 0 0
1709 1 24.98999999999999 48.19499999999998 55.33499999999998 0 0 0
1710 4 26.77499999999999 46.40999999999999 55.33499999999998 0 0 0
1711 2 26.77499999999999 48.19499999999998 53.54999999999999 0 0 0
1741 1 24.98999999999999 51.764999999999986 33.914999999999985 0 0 0
1742 2 26.77499999999999 49.97999999999998 33.914999999999985 0 0 0
1743 3 26.77499999999999 51.764999999999986 32.12999999999999 0 0 0
1744 4 24.98999999999999 49.97999999999998 35.69999999999998 0 0 0
1745 2 24.98999999999999 51.764999999999986 37.484999999999985 0 0 0
1746 1 26.77499999999999 49.97999999999998 37.484999999999985 0 0 0
1747 2 26.77499999999999 51.764999999999986 35.69999999999998 0 0 0
1748 3 24.98999999999999 49.97999999999998 39.26999999999999 0 0 0