model_files/Ni/Ni_30000/Ni_421/data.Ni_421_fcc_30423 (written by ASE) 

30423 	 atoms 
1  atom types
0.0                      93  xlo xhi
0.0                      93  ylo yhi
0.0                      93  zlo zhi


Atoms 

     1   1      1.7600000000000051      40.480000000000011      42.240000000000009
     2   1      1.7600000000000051      40.480000000000011      45.760000000000005
     3   1      1.7600000000000051      40.480000000000011      49.280000000000001
     4   1      1.7600000000000051      42.240000000000009      40.480000000000011
     5   1  7.1054273576010019e-15                      44                      44
     6   1      1.7600000000000051      42.240000000000009                      44
     7   1      1.7600000000000051                      44      42.240000000000009
     8   1  7.1054273576010019e-15      42.240000000000009      45.760000000000005
     9   1  7.1054273576010019e-15                      44       47.52000000000001
    10   1      1.7600000000000051      42.240000000000009       47.52000000000001
    11   1      1.7600000000000051                      44      45.760000000000005
    12   1      1.7600000000000051      42.240000000000009      51.039999999999999
    13   1      1.7600000000000051                      44      49.280000000000001
    14   1      1.7600000000000051      45.760000000000005      40.480000000000011
    15   1  7.1054273576010019e-15      45.760000000000005      42.240000000000009
    16   1  7.1054273576010019e-15       47.52000000000001                      44
    17   1      1.7600000000000051      45.760000000000005                      44
    18   1      1.7600000000000051       47.52000000000001      42.240000000000009
    19   1  7.1054273576010019e-15      45.760000000000005      45.760000000000005
    20   1  7.1054273576010019e-15       47.52000000000001       47.52000000000001
    21   1      1.7600000000000051      45.760000000000005       47.52000000000001
    22   1      1.7600000000000051       47.52000000000001      45.760000000000005
    23   1  7.1054273576010019e-15      45.760000000000005      49.280000000000001
    24   1      1.7600000000000051      45.760000000000005      51.039999999999999
    25   1      1.7600000000000051       47.52000000000001      49.280000000000001
    26   1      1.7600000000000051      49.280000000000001      40.480000000000011
    27   1      1.7600000000000051      49.280000000000001                      44
    28   1      1.7600000000000051      51.039999999999999      42.240000000000009
    29   1  7.1054273576010019e-15      49.280000000000001      45.760000000000005
    30   1      1.7600000000000051      49.280000000000001       47.52000000000001
    31   1      1.7600000000000051      51.039999999999999      45.760000000000005
    32   1      1.7600000000000051      49.280000000000001      51.039999999999999
    33   1      1.7600000000000051      51.039999999999999      49.280000000000001
    34   1       5.280000000000002      33.440000000000012      42.240000000000009
    35   1       5.280000000000002      33.440000000000012      45.760000000000005
    36   1       5.280000000000002      33.440000000000012      49.280000000000001
    37   1       5.280000000000002      35.200000000000003      40.480000000000011
    38   1       5.280000000000002      36.960000000000001      38.720000000000006
    39   1      3.5200000000000031      36.960000000000001                      44
    40   1       5.280000000000002      35.200000000000003                      44
    41   1       5.280000000000002      36.960000000000001      42.240000000000009
    42   1      3.5200000000000031      35.200000000000003      45.760000000000005
    43   1      3.5200000000000031      36.960000000000001       47.52000000000001
    44   1       5.280000000000002      35.200000000000003       47.52000000000001
    45   1       5.280000000000002      36.960000000000001      45.760000000000005
    46   1       5.280000000000002      35.200000000000003      51.039999999999999
    47   1       5.280000000000002      36.960000000000001      49.280000000000001
    48   1       5.280000000000002      36.960000000000001      52.800000000000011
    49   1       5.280000000000002      38.720000000000006      36.960000000000001
    50   1       5.280000000000002      40.480000000000011      35.200000000000003
    51   1      3.5200000000000031      38.720000000000006      38.720000000000006
    52   1      3.5200000000000031      40.480000000000011      40.480000000000011
    53   1       5.280000000000002      38.720000000000006      40.480000000000011
    54   1       5.280000000000002      40.480000000000011      38.720000000000006
    55   1      3.5200000000000031      38.720000000000006      42.240000000000009
    56   1      3.5200000000000031      40.480000000000011                      44
    57   1       5.280000000000002      38.720000000000006                      44
    58   1       5.280000000000002      40.480000000000011      42.240000000000009
    59   1      3.5200000000000031      38.720000000000006      45.760000000000005
    60   1      3.5200000000000031      40.480000000000011       47.52000000000001
    61   1       5.280000000000002      38.720000000000006       47.52000000000001
    62   1       5.280000000000002      40.480000000000011      45.760000000000005
    63   1      3.5200000000000031      38.720000000000006      49.280000000000001
    64   1      3.5200000000000031      40.480000000000011      51.039999999999999
    65   1       5.280000000000002      38.720000000000006      51.039999999999999
    66   1       5.280000000000002      40.480000000000011      49.280000000000001
    67   1      3.5200000000000031      38.720000000000006      52.800000000000011
    68   1       5.280000000000002      38.720000000000006      54.560000000000009
    69   1       5.280000000000002      40.480000000000011      52.800000000000011
    70   1       5.280000000000002      40.480000000000011      56.320000000000007
    71   1       5.280000000000002      42.240000000000009      33.440000000000012
    72   1      3.5200000000000031                      44      36.960000000000001
    73   1       5.280000000000002      42.240000000000009      36.960000000000001
    74   1       5.280000000000002                      44      35.200000000000003
    75   1      3.5200000000000031      42.240000000000009      38.720000000000006
    76   1      3.5200000000000031                      44      40.480000000000011
    77   1       5.280000000000002      42.240000000000009      40.480000000000011
    78   1       5.280000000000002                      44      38.720000000000006
    79   1      3.5200000000000031      42.240000000000009      42.240000000000009
    80   1      3.5200000000000031                      44                      44
    81   1       5.280000000000002      42.240000000000009                      44
    82   1       5.280000000000002                      44      42.240000000000009
    83   1      3.5200000000000031      42.240000000000009      45.760000000000005
    84   1      3.5200000000000031                      44       47.52000000000001
    85   1       5.280000000000002      42.240000000000009       47.52000000000001
    86   1       5.280000000000002                      44      45.760000000000005
    87   1      3.5200000000000031      42.240000000000009      49.280000000000001
    88   1      3.5200000000000031                      44      51.039999999999999
    89   1       5.280000000000002      42.240000000000009      51.039999999999999
    90   1       5.280000000000002                      44      49.280000000000001
    91   1      3.5200000000000031      42.240000000000009      52.800000000000011
    92   1      3.5200000000000031                      44      54.560000000000009
    93   1       5.280000000000002      42.240000000000009      54.560000000000009
    94   1       5.280000000000002                      44      52.800000000000011
    95   1       5.280000000000002      42.240000000000009      58.080000000000013
    96   1       5.280000000000002                      44      56.320000000000007
    97   1       5.280000000000002      45.760000000000005      33.440000000000012
    98   1      3.5200000000000031      45.760000000000005      35.200000000000003
    99   1      3.5200000000000031       47.52000000000001      36.960000000000001
   100   1       5.280000000000002      45.760000000000005      36.960000000000001
   101   1       5.280000000000002       47.52000000000001      35.200000000000003
   102   1      3.5200000000000031      45.760000000000005      38.720000000000006
   103   1      3.5200000000000031       47.52000000000001      40.480000000000011
   104   1       5.280000000000002      45.760000000000005      40.480000000000011
   105   1       5.280000000000002       47.52000000000001      38.720000000000006
   106   1      3.5200000000000031      45.760000000000005      42.240000000000009
   107   1      3.5200000000000031       47.52000000000001                      44
   108   1       5.280000000000002      45.760000000000005                      44
   109   1       5.280000000000002       47.52000000000001      42.240000000000009
   110   1      3.5200000000000031      45.760000000000005      45.760000000000005
   111   1      3.5200000000000031       47.52000000000001       47.52000000000001
   112   1       5.280000000000002      45.760000000000005       47.52000000000001
   113   1       5.280000000000002       47.52000000000001      45.760000000000005
   114   1      3.5200000000000031      45.760000000000005      49.280000000000001
   115   1      3.5200000000000031       47.52000000000001      51.039999999999999
   116   1       5.280000000000002      45.760000000000005      51.039999999999999
   117   1       5.280000000000002       47.52000000000001      49.280000000000001
   118   1      3.5200000000000031      45.760000000000005      52.800000000000011
   119   1      3.5200000000000031       47.52000000000001      54.560000000000009
   120   1       5.280000000000002      45.760000000000005      54.560000000000009
   121   1       5.280000000000002       47.52000000000001      52.800000000000011
   122   1      3.5200000000000031      45.760000000000005      56.320000000000007
   123   1       5.280000000000002      45.760000000000005      58.080000000000013
   124   1       5.280000000000002       47.52000000000001      56.320000000000007
   125   1       5.280000000000002      49.280000000000001      33.440000000000012
   126   1       5.280000000000002      49.280000000000001      36.960000000000001
   127   1       5.280000000000002      51.039999999999999      35.200000000000003
   128   1      3.5200000000000031      49.280000000000001      38.720000000000006
   129   1      3.5200000000000031      51.039999999999999      40.480000000000011
   130   1       5.280000000000002      49.280000000000001      40.480000000000011
   131   1       5.280000000000002      51.039999999999999      38.720000000000006
   132   1      3.5200000000000031      49.280000000000001      42.240000000000009
   133   1      3.5200000000000031      51.039999999999999                      44
   134   1       5.280000000000002      49.280000000000001                      44
   135   1       5.280000000000002      51.039999999999999      42.240000000000009
   136   1      3.5200000000000031      49.280000000000001      45.760000000000005
   137   1      3.5200000000000031      51.039999999999999       47.52000000000001
   138   1       5.280000000000002      49.280000000000001       47.52000000000001
   139   1       5.280000000000002      51.039999999999999      45.760000000000005
   140   1      3.5200000000000031      49.280000000000001      49.280000000000001
   141   1      3.5200000000000031      51.039999999999999      51.039999999999999
   142   1       5.280000000000002      49.280000000000001      51.039999999999999
   143   1       5.280000000000002      51.039999999999999      49.280000000000001
   144   1      3.5200000000000031      49.280000000000001      52.800000000000011
   145   1       5.280000000000002      49.280000000000001      54.560000000000009
   146   1       5.280000000000002      51.039999999999999      52.800000000000011
   147   1       5.280000000000002      49.280000000000001      58.080000000000013
   148   1       5.280000000000002      51.039999999999999      56.320000000000007
   149   1       5.280000000000002      52.800000000000011      36.960000000000001
   150   1      3.5200000000000031      52.800000000000011      38.720000000000006
   151   1       5.280000000000002      52.800000000000011      40.480000000000011
   152   1       5.280000000000002      54.560000000000009      38.720000000000006
   153   1      3.5200000000000031      52.800000000000011      42.240000000000009
   154   1      3.5200000000000031      54.560000000000009                      44
   155   1       5.280000000000002      52.800000000000011                      44
   156   1       5.280000000000002      54.560000000000009      42.240000000000009
   157   1      3.5200000000000031      52.800000000000011      45.760000000000005
   158   1      3.5200000000000031      54.560000000000009       47.52000000000001
   159   1       5.280000000000002      52.800000000000011       47.52000000000001
   160   1       5.280000000000002      54.560000000000009      45.760000000000005
   161   1      3.5200000000000031      52.800000000000011      49.280000000000001
   162   1       5.280000000000002      52.800000000000011      51.039999999999999
   163   1       5.280000000000002      54.560000000000009      49.280000000000001
   164   1      3.5200000000000031      52.800000000000011      52.800000000000011
   165   1       5.280000000000002      52.800000000000011      54.560000000000009
   166   1       5.280000000000002      54.560000000000009      52.800000000000011
   167   1       5.280000000000002      56.320000000000007      40.480000000000011
   168   1       5.280000000000002      56.320000000000007                      44
   169   1       5.280000000000002      58.080000000000013      42.240000000000009
   170   1      3.5200000000000031      56.320000000000007      45.760000000000005
   171   1       5.280000000000002      56.320000000000007       47.52000000000001
   172   1       5.280000000000002      58.080000000000013      45.760000000000005
   173   1       5.280000000000002      56.320000000000007      51.039999999999999
   174   1       5.280000000000002      58.080000000000013      49.280000000000001
   175   1      8.8000000000000043      26.400000000000006      42.240000000000009
   176   1      8.8000000000000043      26.400000000000006      45.760000000000005
   177   1      8.8000000000000043      26.400000000000006      49.280000000000001
   178   1      8.8000000000000043      29.920000000000005      35.200000000000003
   179   1      8.8000000000000043      28.160000000000004      40.480000000000011
   180   1      8.8000000000000043      29.920000000000005      38.720000000000006
   181   1      7.0400000000000063      29.920000000000005                      44
   182   1      8.8000000000000043      28.160000000000004                      44
   183   1      8.8000000000000043      29.920000000000005      42.240000000000009
   184   1      7.0400000000000063      28.160000000000004      45.760000000000005
   185   1      7.0400000000000063      29.920000000000005       47.52000000000001
   186   1      8.8000000000000043      28.160000000000004       47.52000000000001
   187   1      8.8000000000000043      29.920000000000005      45.760000000000005
   188   1      8.8000000000000043      28.160000000000004      51.039999999999999
   189   1      8.8000000000000043      29.920000000000005      49.280000000000001
   190   1      8.8000000000000043      29.920000000000005      52.800000000000011
   191   1      8.8000000000000043      29.920000000000005      56.320000000000007
   192   1      8.8000000000000043       31.68000000000001      33.440000000000012
   193   1      8.8000000000000043      33.440000000000012       31.68000000000001
   194   1      7.0400000000000063      33.440000000000012      36.960000000000001
   195   1      8.8000000000000043       31.68000000000001      36.960000000000001
   196   1      8.8000000000000043      33.440000000000012      35.200000000000003
   197   1      7.0400000000000063       31.68000000000001      38.720000000000006
   198   1      7.0400000000000063      33.440000000000012      40.480000000000011
   199   1      8.8000000000000043       31.68000000000001      40.480000000000011
   200   1      8.8000000000000043      33.440000000000012      38.720000000000006
   201   1      7.0400000000000063       31.68000000000001      42.240000000000009
   202   1      7.0400000000000063      33.440000000000012                      44
   203   1      8.8000000000000043       31.68000000000001                      44
   204   1      8.8000000000000043      33.440000000000012      42.240000000000009
   205   1      7.0400000000000063       31.68000000000001      45.760000000000005
   206   1      7.0400000000000063      33.440000000000012       47.52000000000001
   207   1      8.8000000000000043       31.68000000000001       47.52000000000001
   208   1      8.8000000000000043      33.440000000000012      45.760000000000005
   209   1      7.0400000000000063       31.68000000000001      49.280000000000001
   210   1      7.0400000000000063      33.440000000000012      51.039999999999999
   211   1      8.8000000000000043       31.68000000000001      51.039999999999999
   212   1      8.8000000000000043      33.440000000000012      49.280000000000001
   213   1      7.0400000000000063       31.68000000000001      52.800000000000011
   214   1      7.0400000000000063      33.440000000000012      54.560000000000009
   215   1      8.8000000000000043       31.68000000000001      54.560000000000009
   216   1      8.8000000000000043      33.440000000000012      52.800000000000011
   217   1      8.8000000000000043       31.68000000000001      58.080000000000013
   218   1      8.8000000000000043      33.440000000000012      56.320000000000007
   219   1      8.8000000000000043      33.440000000000012      59.840000000000011
   220   1      8.8000000000000043      35.200000000000003      29.920000000000005
   221   1      7.0400000000000063      36.960000000000001      33.440000000000012
   222   1      8.8000000000000043      35.200000000000003      33.440000000000012
   223   1      8.8000000000000043      36.960000000000001       31.68000000000001
   224   1      7.0400000000000063      35.200000000000003      35.200000000000003
   225   1      7.0400000000000063      36.960000000000001      36.960000000000001
   226   1      8.8000000000000043      35.200000000000003      36.960000000000001
   227   1      8.8000000000000043      36.960000000000001      35.200000000000003
   228   1      7.0400000000000063      35.200000000000003      38.720000000000006
   229   1      7.0400000000000063      36.960000000000001      40.480000000000011
   230   1      8.8000000000000043      35.200000000000003      40.480000000000011
   231   1      8.8000000000000043      36.960000000000001      38.720000000000006
   232   1      7.0400000000000063      35.200000000000003      42.240000000000009
   233   1      7.0400000000000063      36.960000000000001                      44
   234   1      8.8000000000000043      35.200000000000003                      44
   235   1      8.8000000000000043      36.960000000000001      42.240000000000009
   236   1      7.0400000000000063      35.200000000000003      45.760000000000005
   237   1      7.0400000000000063      36.960000000000001       47.52000000000001
   238   1      8.8000000000000043      35.200000000000003       47.52000000000001
   239   1      8.8000000000000043      36.960000000000001      45.760000000000005
   240   1      7.0400000000000063      35.200000000000003      49.280000000000001
   241   1      7.0400000000000063      36.960000000000001      51.039999999999999
   242   1      8.8000000000000043      35.200000000000003      51.039999999999999
   243   1      8.8000000000000043      36.960000000000001      49.280000000000001
   244   1      7.0400000000000063      35.200000000000003      52.800000000000011
   245   1      7.0400000000000063      36.960000000000001      54.560000000000009
   246   1      8.8000000000000043      35.200000000000003      54.560000000000009
   247   1      8.8000000000000043      36.960000000000001      52.800000000000011
   248   1      7.0400000000000063      35.200000000000003      56.320000000000007
   249   1      7.0400000000000063      36.960000000000001      58.080000000000013
   250   1      8.8000000000000043      35.200000000000003      58.080000000000013
   251   1      8.8000000000000043      36.960000000000001      56.320000000000007
   252   1      8.8000000000000043      35.200000000000003      61.600000000000009
   253   1      8.8000000000000043      36.960000000000001      59.840000000000011
   254   1      8.8000000000000043      38.720000000000006      29.920000000000005
   255   1      8.8000000000000043      40.480000000000011      28.160000000000004
   256   1      7.0400000000000063      38.720000000000006       31.68000000000001
   257   1      7.0400000000000063      40.480000000000011      33.440000000000012
   258   1      8.8000000000000043      38.720000000000006      33.440000000000012
   259   1      8.8000000000000043      40.480000000000011       31.68000000000001
   260   1      7.0400000000000063      38.720000000000006      35.200000000000003
   261   1      7.0400000000000063      40.480000000000011      36.960000000000001
   262   1      8.8000000000000043      38.720000000000006      36.960000000000001
   263   1      8.8000000000000043      40.480000000000011      35.200000000000003
   264   1      7.0400000000000063      38.720000000000006      38.720000000000006
   265   1      7.0400000000000063      40.480000000000011      40.480000000000011
   266   1      8.8000000000000043      38.720000000000006      40.480000000000011
   267   1      8.8000000000000043      40.480000000000011      38.720000000000006
   268   1      7.0400000000000063      38.720000000000006      42.240000000000009
   269   1      7.0400000000000063      40.480000000000011                      44
   270   1      8.8000000000000043      38.720000000000006                      44
   271   1      8.8000000000000043      40.480000000000011      42.240000000000009
   272   1      7.0400000000000063      38.720000000000006      45.760000000000005
   273   1      7.0400000000000063      40.480000000000011       47.52000000000001
   274   1      8.8000000000000043      38.720000000000006       47.52000000000001
   275   1      8.8000000000000043      40.480000000000011      45.760000000000005
   276   1      7.0400000000000063      38.720000000000006      49.280000000000001
   277   1      7.0400000000000063      40.480000000000011      51.039999999999999
   278   1      8.8000000000000043      38.720000000000006      51.039999999999999
   279   1      8.8000000000000043      40.480000000000011      49.280000000000001
   280   1      7.0400000000000063      38.720000000000006      52.800000000000011
   281   1      7.0400000000000063      40.480000000000011      54.560000000000009
   282   1      8.8000000000000043      38.720000000000006      54.560000000000009
   283   1      8.8000000000000043      40.480000000000011      52.800000000000011
   284   1      7.0400000000000063      38.720000000000006      56.320000000000007
   285   1      7.0400000000000063      40.480000000000011      58.080000000000013
   286   1      8.8000000000000043      38.720000000000006      58.080000000000013
   287   1      8.8000000000000043      40.480000000000011      56.320000000000007
   288   1      7.0400000000000063      38.720000000000006      59.840000000000011
   289   1      8.8000000000000043      38.720000000000006      61.600000000000009
   290   1      8.8000000000000043      40.480000000000011      59.840000000000011
   291   1      8.8000000000000043      40.480000000000011      63.360000000000007
   292   1      8.8000000000000043      42.240000000000009      26.400000000000006
   293   1      7.0400000000000063                      44      29.920000000000005
   294   1      8.8000000000000043      42.240000000000009      29.920000000000005
   295   1      8.8000000000000043                      44      28.160000000000004
   296   1      7.0400000000000063      42.240000000000009       31.68000000000001
   297   1      7.0400000000000063                      44      33.440000000000012
   298   1      8.8000000000000043      42.240000000000009      33.440000000000012
   299   1      8.8000000000000043                      44       31.68000000000001
   300   1      7.0400000000000063      42.240000000000009      35.200000000000003
   301   1      7.0400000000000063                      44      36.960000000000001
   302   1      8.8000000000000043      42.240000000000009      36.960000000000001
   303   1      8.8000000000000043                      44      35.200000000000003
   304   1      7.0400000000000063      42.240000000000009      38.720000000000006
   305   1      7.0400000000000063                      44      40.480000000000011
   306   1      8.8000000000000043      42.240000000000009      40.480000000000011
   307   1      8.8000000000000043                      44      38.720000000000006
   308   1      7.0400000000000063      42.240000000000009      42.240000000000009
   309   1      7.0400000000000063                      44                      44
   310   1      8.8000000000000043      42.240000000000009                      44
   311   1      8.8000000000000043                      44      42.240000000000009
   312   1      7.0400000000000063      42.240000000000009      45.760000000000005
   313   1      7.0400000000000063                      44       47.52000000000001
   314   1      8.8000000000000043      42.240000000000009       47.52000000000001
   315   1      8.8000000000000043                      44      45.760000000000005
   316   1      7.0400000000000063      42.240000000000009      49.280000000000001
   317   1      7.0400000000000063                      44      51.039999999999999
   318   1      8.8000000000000043      42.240000000000009      51.039999999999999
   319   1      8.8000000000000043                      44      49.280000000000001
   320   1      7.0400000000000063      42.240000000000009      52.800000000000011
   321   1      7.0400000000000063                      44      54.560000000000009
   322   1      8.8000000000000043      42.240000000000009      54.560000000000009
   323   1      8.8000000000000043                      44      52.800000000000011
   324   1      7.0400000000000063      42.240000000000009      56.320000000000007
   325   1      7.0400000000000063                      44      58.080000000000013
   326   1      8.8000000000000043      42.240000000000009      58.080000000000013
   327   1      8.8000000000000043                      44      56.320000000000007
   328   1      7.0400000000000063      42.240000000000009      59.840000000000011
   329   1      7.0400000000000063                      44      61.600000000000009
   330   1      8.8000000000000043      42.240000000000009      61.600000000000009
   331   1      8.8000000000000043                      44      59.840000000000011
   332   1      8.8000000000000043      42.240000000000009      65.120000000000005
   333   1      8.8000000000000043                      44      63.360000000000007
   334   1      8.8000000000000043      45.760000000000005      26.400000000000006
   335   1      7.0400000000000063      45.760000000000005      28.160000000000004
   336   1      7.0400000000000063       47.52000000000001      29.920000000000005
   337   1      8.8000000000000043      45.760000000000005      29.920000000000005
   338   1      8.8000000000000043       47.52000000000001      28.160000000000004
   339   1      7.0400000000000063      45.760000000000005       31.68000000000001
   340   1      7.0400000000000063       47.52000000000001      33.440000000000012
   341   1      8.8000000000000043      45.760000000000005      33.440000000000012
   342   1      8.8000000000000043       47.52000000000001       31.68000000000001
   343   1      7.0400000000000063      45.760000000000005      35.200000000000003
   344   1      7.0400000000000063       47.52000000000001      36.960000000000001
   345   1      8.8000000000000043      45.760000000000005      36.960000000000001
   346   1      8.8000000000000043       47.52000000000001      35.200000000000003
   347   1      7.0400000000000063      45.760000000000005      38.720000000000006
   348   1      7.0400000000000063       47.52000000000001      40.480000000000011
   349   1      8.8000000000000043      45.760000000000005      40.480000000000011
   350   1      8.8000000000000043       47.52000000000001      38.720000000000006
   351   1      7.0400000000000063      45.760000000000005      42.240000000000009
   352   1      7.0400000000000063       47.52000000000001                      44
   353   1      8.8000000000000043      45.760000000000005                      44
   354   1      8.8000000000000043       47.52000000000001      42.240000000000009
   355   1      7.0400000000000063      45.760000000000005      45.760000000000005
   356   1      7.0400000000000063       47.52000000000001       47.52000000000001
   357   1      8.8000000000000043      45.760000000000005       47.52000000000001
   358   1      8.8000000000000043       47.52000000000001      45.760000000000005