model_files/Co/Co_30000/Co_111/data.Co_111_hcp_28595 (written by ASE) 

28595 	 atoms 
1  atom types
0.0                      87  xlo xhi
0.0                      87  ylo yhi
0.0                      87  zlo zhi


Atoms 

     1   1      1.2550000000000097      41.415000000000006      42.670000000000002
     2   1      1.2550000000000097      42.670000000000002      41.415000000000006
     3   1  7.1054273576010019e-15      42.670000000000002      42.670000000000002
     4   1      1.2550000000000097      42.670000000000002      43.925000000000004
     5   1      1.2550000000000097      43.925000000000004      42.670000000000002
     6   1      3.7650000000000072      38.905000000000008      42.670000000000002
     7   1      2.5100000000000051      41.415000000000006      41.415000000000006
     8   1      3.7650000000000072      40.160000000000004      41.415000000000006
     9   1      3.7650000000000072      41.415000000000006      40.160000000000004
    10   1      2.5100000000000051      40.160000000000004      42.670000000000002
    11   1      2.5100000000000051      41.415000000000006      43.925000000000004
    12   1      3.7650000000000072      40.160000000000004      43.925000000000004
    13   1      3.7650000000000072      41.415000000000006      42.670000000000002
    14   1      3.7650000000000072      41.415000000000006      45.180000000000007
    15   1      3.7650000000000072      42.670000000000002      38.905000000000008
    16   1      2.5100000000000051      42.670000000000002      40.160000000000004
    17   1      2.5100000000000051      43.925000000000004      41.415000000000006
    18   1      3.7650000000000072      42.670000000000002      41.415000000000006
    19   1      3.7650000000000072      43.925000000000004      40.160000000000004
    20   1      2.5100000000000051      42.670000000000002      42.670000000000002
    21   1      2.5100000000000051      43.925000000000004      43.925000000000004
    22   1      3.7650000000000072      42.670000000000002      43.925000000000004
    23   1      3.7650000000000072      43.925000000000004      42.670000000000002
    24   1      2.5100000000000051      42.670000000000002      45.180000000000007
    25   1      3.7650000000000072      42.670000000000002      46.435000000000009
    26   1      3.7650000000000072      43.925000000000004      45.180000000000007
    27   1      3.7650000000000072      45.180000000000007      41.415000000000006
    28   1      2.5100000000000051      45.180000000000007      42.670000000000002
    29   1      3.7650000000000072      45.180000000000007      43.925000000000004
    30   1      3.7650000000000072      46.435000000000009      42.670000000000002
    31   1      6.2750000000000057       36.39500000000001      42.670000000000002
    32   1      5.0200000000000102      38.905000000000008      41.415000000000006
    33   1      6.2750000000000057      37.650000000000006      41.415000000000006
    34   1      6.2750000000000057      38.905000000000008      40.160000000000004
    35   1      5.0200000000000102      37.650000000000006      42.670000000000002
    36   1      5.0200000000000102      38.905000000000008      43.925000000000004
    37   1      6.2750000000000057      37.650000000000006      43.925000000000004
    38   1      6.2750000000000057      38.905000000000008      42.670000000000002
    39   1      6.2750000000000057      38.905000000000008      45.180000000000007
    40   1      5.0200000000000102      41.415000000000006      38.905000000000008
    41   1      6.2750000000000057      40.160000000000004      38.905000000000008
    42   1      6.2750000000000057      41.415000000000006      37.650000000000006
    43   1      5.0200000000000102      40.160000000000004      40.160000000000004
    44   1      5.0200000000000102      41.415000000000006      41.415000000000006
    45   1      6.2750000000000057      40.160000000000004      41.415000000000006
    46   1      6.2750000000000057      41.415000000000006      40.160000000000004
    47   1      5.0200000000000102      40.160000000000004      42.670000000000002
    48   1      5.0200000000000102      41.415000000000006      43.925000000000004
    49   1      6.2750000000000057      40.160000000000004      43.925000000000004
    50   1      6.2750000000000057      41.415000000000006      42.670000000000002
    51   1      5.0200000000000102      40.160000000000004      45.180000000000007
    52   1      5.0200000000000102      41.415000000000006      46.435000000000009
    53   1      6.2750000000000057      40.160000000000004      46.435000000000009
    54   1      6.2750000000000057      41.415000000000006      45.180000000000007
    55   1      6.2750000000000057      41.415000000000006      47.690000000000005
    56   1      6.2750000000000057      42.670000000000002       36.39500000000001
    57   1      5.0200000000000102      42.670000000000002      37.650000000000006
    58   1      5.0200000000000102      43.925000000000004      38.905000000000008
    59   1      6.2750000000000057      42.670000000000002      38.905000000000008
    60   1      6.2750000000000057      43.925000000000004      37.650000000000006
    61   1      5.0200000000000102      42.670000000000002      40.160000000000004
    62   1      5.0200000000000102      43.925000000000004      41.415000000000006
    63   1      6.2750000000000057      42.670000000000002      41.415000000000006
    64   1      6.2750000000000057      43.925000000000004      40.160000000000004
    65   1      5.0200000000000102      42.670000000000002      42.670000000000002
    66   1      5.0200000000000102      43.925000000000004      43.925000000000004
    67   1      6.2750000000000057      42.670000000000002      43.925000000000004
    68   1      6.2750000000000057      43.925000000000004      42.670000000000002
    69   1      5.0200000000000102      42.670000000000002      45.180000000000007
    70   1      5.0200000000000102      43.925000000000004      46.435000000000009
    71   1      6.2750000000000057      42.670000000000002      46.435000000000009
    72   1      6.2750000000000057      43.925000000000004      45.180000000000007
    73   1      5.0200000000000102      42.670000000000002      47.690000000000005
    74   1      6.2750000000000057      42.670000000000002      48.945000000000007
    75   1      6.2750000000000057      43.925000000000004      47.690000000000005
    76   1      6.2750000000000057      45.180000000000007      38.905000000000008
    77   1      5.0200000000000102      45.180000000000007      40.160000000000004
    78   1      5.0200000000000102      46.435000000000009      41.415000000000006
    79   1      6.2750000000000057      45.180000000000007      41.415000000000006
    80   1      6.2750000000000057      46.435000000000009      40.160000000000004
    81   1      5.0200000000000102      45.180000000000007      42.670000000000002
    82   1      5.0200000000000102      46.435000000000009      43.925000000000004
    83   1      6.2750000000000057      45.180000000000007      43.925000000000004
    84   1      6.2750000000000057      46.435000000000009      42.670000000000002
    85   1      5.0200000000000102      45.180000000000007      45.180000000000007
    86   1      6.2750000000000057      45.180000000000007      46.435000000000009
    87   1      6.2750000000000057      46.435000000000009      45.180000000000007
    88   1      6.2750000000000057      47.690000000000005      41.415000000000006
    89   1      5.0200000000000102      47.690000000000005      42.670000000000002
    90   1      6.2750000000000057      47.690000000000005      43.925000000000004
    91   1      6.2750000000000057      48.945000000000007      42.670000000000002
    92   1      8.7850000000000108      33.885000000000012      42.670000000000002
    93   1      7.5300000000000074       36.39500000000001      41.415000000000006
    94   1      8.7850000000000108      35.140000000000008      41.415000000000006
    95   1      8.7850000000000108       36.39500000000001      40.160000000000004
    96   1      7.5300000000000074      35.140000000000008      42.670000000000002
    97   1      7.5300000000000074       36.39500000000001      43.925000000000004
    98   1      8.7850000000000108      35.140000000000008      43.925000000000004
    99   1      8.7850000000000108       36.39500000000001      42.670000000000002
   100   1      8.7850000000000108       36.39500000000001      45.180000000000007
   101   1      7.5300000000000074      38.905000000000008      38.905000000000008
   102   1      8.7850000000000108      37.650000000000006      38.905000000000008
   103   1      8.7850000000000108      38.905000000000008      37.650000000000006
   104   1      7.5300000000000074      37.650000000000006      40.160000000000004
   105   1      7.5300000000000074      38.905000000000008      41.415000000000006
   106   1      8.7850000000000108      37.650000000000006      41.415000000000006
   107   1      8.7850000000000108      38.905000000000008      40.160000000000004
   108   1      7.5300000000000074      37.650000000000006      42.670000000000002
   109   1      7.5300000000000074      38.905000000000008      43.925000000000004
   110   1      8.7850000000000108      37.650000000000006      43.925000000000004
   111   1      8.7850000000000108      38.905000000000008      42.670000000000002
   112   1      7.5300000000000074      37.650000000000006      45.180000000000007
   113   1      7.5300000000000074      38.905000000000008      46.435000000000009
   114   1      8.7850000000000108      37.650000000000006      46.435000000000009
   115   1      8.7850000000000108      38.905000000000008      45.180000000000007
   116   1      8.7850000000000108      38.905000000000008      47.690000000000005
   117   1      7.5300000000000074      41.415000000000006       36.39500000000001
   118   1      8.7850000000000108      40.160000000000004       36.39500000000001
   119   1      8.7850000000000108      41.415000000000006      35.140000000000008
   120   1      7.5300000000000074      40.160000000000004      37.650000000000006
   121   1      7.5300000000000074      41.415000000000006      38.905000000000008
   122   1      8.7850000000000108      40.160000000000004      38.905000000000008
   123   1      8.7850000000000108      41.415000000000006      37.650000000000006
   124   1      7.5300000000000074      40.160000000000004      40.160000000000004
   125   1      7.5300000000000074      41.415000000000006      41.415000000000006
   126   1      8.7850000000000108      40.160000000000004      41.415000000000006
   127   1      8.7850000000000108      41.415000000000006      40.160000000000004
   128   1      7.5300000000000074      40.160000000000004      42.670000000000002
   129   1      7.5300000000000074      41.415000000000006      43.925000000000004
   130   1      8.7850000000000108      40.160000000000004      43.925000000000004
   131   1      8.7850000000000108      41.415000000000006      42.670000000000002
   132   1      7.5300000000000074      40.160000000000004      45.180000000000007
   133   1      7.5300000000000074      41.415000000000006      46.435000000000009
   134   1      8.7850000000000108      40.160000000000004      46.435000000000009
   135   1      8.7850000000000108      41.415000000000006      45.180000000000007
   136   1      7.5300000000000074      40.160000000000004      47.690000000000005
   137   1      7.5300000000000074      41.415000000000006      48.945000000000007
   138   1      8.7850000000000108      40.160000000000004      48.945000000000007
   139   1      8.7850000000000108      41.415000000000006      47.690000000000005
   140   1      8.7850000000000108      41.415000000000006      50.200000000000003
   141   1      8.7850000000000108      42.670000000000002      33.885000000000012
   142   1      7.5300000000000074      42.670000000000002      35.140000000000008
   143   1      7.5300000000000074      43.925000000000004       36.39500000000001
   144   1      8.7850000000000108      42.670000000000002       36.39500000000001
   145   1      8.7850000000000108      43.925000000000004      35.140000000000008
   146   1      7.5300000000000074      42.670000000000002      37.650000000000006
   147   1      7.5300000000000074      43.925000000000004      38.905000000000008
   148   1      8.7850000000000108      42.670000000000002      38.905000000000008
   149   1      8.7850000000000108      43.925000000000004      37.650000000000006
   150   1      7.5300000000000074      42.670000000000002      40.160000000000004
   151   1      7.5300000000000074      43.925000000000004      41.415000000000006
   152   1      8.7850000000000108      42.670000000000002      41.415000000000006
   153   1      8.7850000000000108      43.925000000000004      40.160000000000004
   154   1      7.5300000000000074      42.670000000000002      42.670000000000002
   155   1      7.5300000000000074      43.925000000000004      43.925000000000004
   156   1      8.7850000000000108      42.670000000000002      43.925000000000004
   157   1      8.7850000000000108      43.925000000000004      42.670000000000002
   158   1      7.5300000000000074      42.670000000000002      45.180000000000007
   159   1      7.5300000000000074      43.925000000000004      46.435000000000009
   160   1      8.7850000000000108      42.670000000000002      46.435000000000009
   161   1      8.7850000000000108      43.925000000000004      45.180000000000007
   162   1      7.5300000000000074      42.670000000000002      47.690000000000005
   163   1      7.5300000000000074      43.925000000000004      48.945000000000007
   164   1      8.7850000000000108      42.670000000000002      48.945000000000007
   165   1      8.7850000000000108      43.925000000000004      47.690000000000005
   166   1      7.5300000000000074      42.670000000000002      50.200000000000003
   167   1      8.7850000000000108      42.670000000000002      51.455000000000005
   168   1      8.7850000000000108      43.925000000000004      50.200000000000003
   169   1      8.7850000000000108      45.180000000000007       36.39500000000001
   170   1      7.5300000000000074      45.180000000000007      37.650000000000006
   171   1      7.5300000000000074      46.435000000000009      38.905000000000008
   172   1      8.7850000000000108      45.180000000000007      38.905000000000008
   173   1      8.7850000000000108      46.435000000000009      37.650000000000006
   174   1      7.5300000000000074      45.180000000000007      40.160000000000004
   175   1      7.5300000000000074      46.435000000000009      41.415000000000006
   176   1      8.7850000000000108      45.180000000000007      41.415000000000006
   177   1      8.7850000000000108      46.435000000000009      40.160000000000004
   178   1      7.5300000000000074      45.180000000000007      42.670000000000002
   179   1      7.5300000000000074      46.435000000000009      43.925000000000004
   180   1      8.7850000000000108      45.180000000000007      43.925000000000004
   181   1      8.7850000000000108      46.435000000000009      42.670000000000002
   182   1      7.5300000000000074      45.180000000000007      45.180000000000007
   183   1      7.5300000000000074      46.435000000000009      46.435000000000009
   184   1      8.7850000000000108      45.180000000000007      46.435000000000009
   185   1      8.7850000000000108      46.435000000000009      45.180000000000007
   186   1      7.5300000000000074      45.180000000000007      47.690000000000005
   187   1      8.7850000000000108      45.180000000000007      48.945000000000007
   188   1      8.7850000000000108      46.435000000000009      47.690000000000005
   189   1      8.7850000000000108      47.690000000000005      38.905000000000008
   190   1      7.5300000000000074      47.690000000000005      40.160000000000004
   191   1      7.5300000000000074      48.945000000000007      41.415000000000006
   192   1      8.7850000000000108      47.690000000000005      41.415000000000006
   193   1      8.7850000000000108      48.945000000000007      40.160000000000004
   194   1      7.5300000000000074      47.690000000000005      42.670000000000002
   195   1      7.5300000000000074      48.945000000000007      43.925000000000004
   196   1      8.7850000000000108      47.690000000000005      43.925000000000004
   197   1      8.7850000000000108      48.945000000000007      42.670000000000002
   198   1      7.5300000000000074      47.690000000000005      45.180000000000007
   199   1      8.7850000000000108      47.690000000000005      46.435000000000009
   200   1      8.7850000000000108      48.945000000000007      45.180000000000007
   201   1      8.7850000000000108      50.200000000000003      41.415000000000006
   202   1      7.5300000000000074      50.200000000000003      42.670000000000002
   203   1      8.7850000000000108      50.200000000000003      43.925000000000004
   204   1      8.7850000000000108      51.455000000000005      42.670000000000002
   205   1      11.295000000000009      31.375000000000007      42.670000000000002
   206   1      10.040000000000006      33.885000000000012      41.415000000000006
   207   1      11.295000000000009       32.63000000000001      41.415000000000006
   208   1      11.295000000000009      33.885000000000012      40.160000000000004
   209   1      10.040000000000006       32.63000000000001      42.670000000000002
   210   1      10.040000000000006      33.885000000000012      43.925000000000004
   211   1      11.295000000000009       32.63000000000001      43.925000000000004
   212   1      11.295000000000009      33.885000000000012      42.670000000000002
   213   1      11.295000000000009      33.885000000000012      45.180000000000007
   214   1      10.040000000000006       36.39500000000001      38.905000000000008
   215   1      11.295000000000009      35.140000000000008      38.905000000000008
   216   1      11.295000000000009       36.39500000000001      37.650000000000006
   217   1      10.040000000000006      35.140000000000008      40.160000000000004
   218   1      10.040000000000006       36.39500000000001      41.415000000000006
   219   1      11.295000000000009      35.140000000000008      41.415000000000006
   220   1      11.295000000000009       36.39500000000001      40.160000000000004
   221   1      10.040000000000006      35.140000000000008      42.670000000000002
   222   1      10.040000000000006       36.39500000000001      43.925000000000004
   223   1      11.295000000000009      35.140000000000008      43.925000000000004
   224   1      11.295000000000009       36.39500000000001      42.670000000000002
   225   1      10.040000000000006      35.140000000000008      45.180000000000007
   226   1      10.040000000000006       36.39500000000001      46.435000000000009
   227   1      11.295000000000009      35.140000000000008      46.435000000000009
   228   1      11.295000000000009       36.39500000000001      45.180000000000007
   229   1      11.295000000000009       36.39500000000001      47.690000000000005
   230   1      10.040000000000006      38.905000000000008       36.39500000000001
   231   1      11.295000000000009      37.650000000000006       36.39500000000001
   232   1      11.295000000000009      38.905000000000008      35.140000000000008
   233   1      10.040000000000006      37.650000000000006      37.650000000000006
   234   1      10.040000000000006      38.905000000000008      38.905000000000008
   235   1      11.295000000000009      37.650000000000006      38.905000000000008
   236   1      11.295000000000009      38.905000000000008      37.650000000000006
   237   1      10.040000000000006      37.650000000000006      40.160000000000004
   238   1      10.040000000000006      38.905000000000008      41.415000000000006
   239   1      11.295000000000009      37.650000000000006      41.415000000000006
   240   1      11.295000000000009      38.905000000000008      40.160000000000004
   241   1      10.040000000000006      37.650000000000006      42.670000000000002
   242   1      10.040000000000006      38.905000000000008      43.925000000000004
   243   1      11.295000000000009      37.650000000000006      43.925000000000004
   244   1      11.295000000000009      38.905000000000008      42.670000000000002
   245   1      10.040000000000006      37.650000000000006      45.180000000000007
   246   1      10.040000000000006      38.905000000000008      46.435000000000009
   247   1      11.295000000000009      37.650000000000006      46.435000000000009
   248   1      11.295000000000009      38.905000000000008      45.180000000000007
   249   1      10.040000000000006      37.650000000000006      47.690000000000005
   250   1      10.040000000000006      38.905000000000008      48.945000000000007
   251   1      11.295000000000009      37.650000000000006      48.945000000000007
   252   1      11.295000000000009      38.905000000000008      47.690000000000005
   253   1      11.295000000000009      38.905000000000008      50.200000000000003
   254   1      10.040000000000006      41.415000000000006      33.885000000000012
   255   1      11.295000000000009      40.160000000000004      33.885000000000012
   256   1      11.295000000000009      41.415000000000006       32.63000000000001
   257   1      10.040000000000006      40.160000000000004      35.140000000000008
   258   1      10.040000000000006      41.415000000000006       36.39500000000001
   259   1      11.295000000000009      40.160000000000004       36.39500000000001
   260   1      11.295000000000009      41.415000000000006      35.140000000000008
   261   1      10.040000000000006      40.160000000000004      37.650000000000006
   262   1      10.040000000000006      41.415000000000006      38.905000000000008
   263   1      11.295000000000009      40.160000000000004      38.905000000000008
   264   1      11.295000000000009      41.415000000000006      37.650000000000006
   265   1      10.040000000000006      40.160000000000004      40.160000000000004
   266   1      10.040000000000006      41.415000000000006      41.415000000000006
   267   1      11.295000000000009      40.160000000000004      41.415000000000006
   268   1      11.295000000000009      41.415000000000006      40.160000000000004
   269   1      10.040000000000006      40.160000000000004      42.670000000000002
   270   1      10.040000000000006      41.415000000000006      43.925000000000004
   271   1      11.295000000000009      40.160000000000004      43.925000000000004
   272   1      11.295000000000009      41.415000000000006      42.670000000000002
   273   1      10.040000000000006      40.160000000000004      45.180000000000007
   274   1      10.040000000000006      41.415000000000006      46.435000000000009
   275   1      11.295000000000009      40.160000000000004      46.435000000000009
   276   1      11.295000000000009      41.415000000000006      45.180000000000007
   277   1      10.040000000000006      40.160000000000004      47.690000000000005
   278   1      10.040000000000006      41.415000000000006      48.945000000000007
   279   1      11.295000000000009      40.160000000000004      48.945000000000007
   280   1      11.295000000000009      41.415000000000006      47.690000000000005
   281   1      10.040000000000006      40.160000000000004      50.200000000000003
   282   1      10.040000000000006      41.415000000000006      51.455000000000005
   283   1      11.295000000000009      40.160000000000004      51.455000000000005
   284   1      11.295000000000009      41.415000000000006      50.200000000000003
   285   1      11.295000000000009      41.415000000000006      52.710000000000008
   286   1      11.295000000000009      42.670000000000002      31.375000000000007
   287   1      10.040000000000006      42.670000000000002       32.63000000000001
   288   1      10.040000000000006      43.925000000000004      33.885000000000012
   289   1      11.295000000000009      42.670000000000002      33.885000000000012
   290   1      11.295000000000009      43.925000000000004       32.63000000000001
   291   1      10.040000000000006      42.670000000000002      35.140000000000008
   292   1      10.040000000000006      43.925000000000004       36.39500000000001
   293   1      11.295000000000009      42.670000000000002       36.39500000000001
   294   1      11.295000000000009      43.925000000000004      35.140000000000008
   295   1      10.040000000000006      42.670000000000002      37.650000000000006
   296   1      10.040000000000006      43.925000000000004      38.905000000000008
   297   1      11.295000000000009      42.670000000000002      38.905000000000008
   298   1      11.295000000000009      43.925000000000004      37.650000000000006
   299   1      10.040000000000006      42.670000000000002      40.160000000000004
   300   1      10.040000000000006      43.925000000000004      41.415000000000006
   301   1      11.295000000000009      42.670000000000002      41.415000000000006
   302   1      11.295000000000009      43.925000000000004      40.160000000000004
   303   1      10.040000000000006      42.670000000000002      42.670000000000002
   304   1      10.040000000000006      43.925000000000004      43.925000000000004
   305   1      11.295000000000009      42.670000000000002      43.925000000000004
   306   1      11.295000000000009      43.925000000000004      42.670000000000002
   307   1      10.040000000000006      42.670000000000002      45.180000000000007
   308   1      10.040000000000006      43.925000000000004      46.435000000000009
   309   1      11.295000000000009      42.670000000000002      46.435000000000009
   310   1      11.295000000000009      43.925000000000004      45.180000000000007
   311   1      10.040000000000006      42.670000000000002      47.690000000000005
   312   1      10.040000000000006      43.925000000000004      48.945000000000007
   313   1      11.295000000000009      42.670000000000002      48.945000000000007
   314   1      11.295000000000009      43.925000000000004      47.690000000000005
   315   1      10.040000000000006      42.670000000000002      50.200000000000003
   316   1      10.040000000000006      43.925000000000004      51.455000000000005
   317   1      11.295000000000009      42.670000000000002      51.455000000000005
   318   1      11.295000000000009      43.925000000000004      50.200000000000003
   319   1      10.040000000000006      42.670000000000002      52.710000000000008
   320   1      11.295000000000009      42.670000000000002      53.965000000000011
   321   1      11.295000000000009      43.925000000000004      52.710000000000008
   322   1      11.295000000000009      45.180000000000007      33.885000000000012
   323   1      10.040000000000006      45.180000000000007      35.140000000000008
   324   1      10.040000000000006      46.435000000000009       36.39500000000001
   325   1      11.295000000000009      45.180000000000007       36.39500000000001
   326   1      11.295000000000009      46.435000000000009      35.140000000000008
   327   1      10.040000000000006      45.180000000000007      37.650000000000006
   328   1      10.040000000000006      46.435000000000009      38.905000000000008
   329   1      11.295000000000009      45.180000000000007      38.905000000000008
   330   1      11.295000000000009      46.435000000000009      37.650000000000006
   331   1      10.040000000000006      45.180000000000007      40.160000000000004
   332   1      10.040000000000006      46.435000000000009      41.415000000000006
   333   1      11.295000000000009      45.180000000000007      41.415000000000006
   334   1      11.295000000000009      46.435000000000009      40.160000000000004
   335   1      10.040000000000006      45.180000000000007      42.670000000000002
   336   1      10.040000000000006      46.435000000000009      43.925000000000004
   337   1      11.295000000000009      45.180000000000007      43.925000000000004
   338   1      11.295000000000009      46.435000000000009      42.670000000000002
   339   1      10.040000000000006      45.180000000000007      45.180000000000007
   340   1      10.040000000000006      46.435000000000009      46.435000000000009
   341   1      11.295000000000009      45.180000000000007      46.435000000000009
   342   1      11.295000000000009      46.435000000000009      45.180000000000007
   343   1      10.040000000000006      45.180000000000007      47.690000000000005
   344   1      10.040000000000006      46.435000000000009      48.945000000000007
   345   1      11.295000000000009      45.180000000000007      48.945000000000007
   346   1      11.295000000000009      46.435000000000009      47.690000000000005
   347   1      10.040000000000006      45.180000000000007      50.200000000000003
   348   1      11.295000000000009      45.180000000000007      51.455000000000005
   349   1      11.295000000000009      46.435000000000009      50.200000000000003
   350   1      11.295000000000009      47.690000000000005       36.39500000000001
   351   1      10.040000000000006      47.690000000000005      37.650000000000006
   352   1      10.040000000000006      48.945000000000007      38.905000000000008
   353   1      11.295000000000009      47.690000000000005      38.905000000000008
   354   1      11.295000000000009      48.945000000000007      37.650000000000006
   355   1      10.040000000000006      47.690000000000005      40.160000000000004
   356   1      10.040000000000006      48.945000000000007      41.415000000000006
   357   1      11.295000000000009      47.690000000000005      41.415000000000006
   358   1      11.295000000000009      48.945000000000007      40.160000000000004