model_files/NiCoCrFeMn/NiCoCrFeMn_30000/NiCoCrFeMn_522/NiCoCrFeMn_522_fcc_30243_temp.data (written by ASE) 

30243 	 atoms 
5  atom types
0.0                      95  xlo xhi
0.0                      95  ylo yhi
0.0                      95  zlo zhi


Atoms 

     1   1      1.7974999999999997      41.342500000000001      46.735000000000007
     2   1      1.7974999999999997      43.140000000000001                 44.9375
     3   1      1.7974999999999997                 44.9375      43.140000000000001
     4   1      1.7974999999999997      43.140000000000001      48.532500000000006
     5   1      1.7974999999999997                 44.9375      46.735000000000007
     6   1      1.7974999999999997                 44.9375      50.330000000000005
     7   1      1.7974999999999997      46.735000000000007      41.342500000000001
     8   1      1.7974999999999997      46.735000000000007                 44.9375
     9   1      1.7974999999999997      48.532500000000006      43.140000000000001
    10   1                       0      46.735000000000007      46.735000000000007
    11   1      1.7974999999999997      46.735000000000007      48.532500000000006
    12   1      1.7974999999999997      48.532500000000006      46.735000000000007
    13   1      1.7974999999999997      46.735000000000007      52.127500000000005
    14   1      1.7974999999999997      48.532500000000006      50.330000000000005
    15   1      1.7974999999999997      50.330000000000005                 44.9375
    16   1      1.7974999999999997      50.330000000000005      48.532500000000006
    17   1      1.7974999999999997      52.127500000000005      46.735000000000007
    18   1      5.3925000000000054      30.557500000000005      46.735000000000007
    19   1      5.3925000000000054      32.355000000000004                 44.9375
    20   1      5.3925000000000054      34.152500000000003      43.140000000000001
    21   1      5.3925000000000054      32.355000000000004      48.532500000000006
    22   1      5.3925000000000054      34.152500000000003      46.735000000000007
    23   1      5.3925000000000054      34.152500000000003      50.330000000000005
    24   1      5.3925000000000054      35.950000000000003      41.342500000000001
    25   1      5.3925000000000054      37.747500000000002      39.545000000000002
    26   1      3.5949999999999993      37.747500000000002                 44.9375
    27   1      5.3925000000000054      35.950000000000003                 44.9375
    28   1      5.3925000000000054      37.747500000000002      43.140000000000001
    29   1      3.5949999999999993      35.950000000000003      46.735000000000007
    30   1      3.5949999999999993      37.747500000000002      48.532500000000006
    31   1      5.3925000000000054      35.950000000000003      48.532500000000006
    32   1      5.3925000000000054      37.747500000000002      46.735000000000007
    33   1      5.3925000000000054      35.950000000000003      52.127500000000005
    34   1      5.3925000000000054      37.747500000000002      50.330000000000005
    35   1      5.3925000000000054      37.747500000000002      53.925000000000004
    36   1      5.3925000000000054      39.545000000000002      37.747500000000002
    37   1      5.3925000000000054      41.342500000000001      35.950000000000003
    38   1      3.5949999999999993      41.342500000000001      41.342500000000001
    39   1      5.3925000000000054      39.545000000000002      41.342500000000001
    40   1      5.3925000000000054      41.342500000000001      39.545000000000002
    41   1      3.5949999999999993      39.545000000000002      43.140000000000001
    42   1      3.5949999999999993      41.342500000000001                 44.9375
    43   1      5.3925000000000054      39.545000000000002                 44.9375
    44   1      5.3925000000000054      41.342500000000001      43.140000000000001
    45   1      3.5949999999999993      39.545000000000002      46.735000000000007
    46   1      3.5949999999999993      41.342500000000001      48.532500000000006
    47   1      5.3925000000000054      39.545000000000002      48.532500000000006
    48   1      5.3925000000000054      41.342500000000001      46.735000000000007
    49   1      3.5949999999999993      39.545000000000002      50.330000000000005
    50   1      3.5949999999999993      41.342500000000001      52.127500000000005
    51   1      5.3925000000000054      39.545000000000002      52.127500000000005
    52   1      5.3925000000000054      41.342500000000001      50.330000000000005
    53   1      5.3925000000000054      39.545000000000002      55.722500000000004
    54   1      5.3925000000000054      41.342500000000001      53.925000000000004
    55   1      5.3925000000000054      41.342500000000001       57.52000000000001
    56   1      5.3925000000000054      43.140000000000001      34.152500000000003
    57   1      5.3925000000000054                 44.9375      32.355000000000004
    58   1      3.5949999999999993                 44.9375      37.747500000000002
    59   1      5.3925000000000054      43.140000000000001      37.747500000000002
    60   1      5.3925000000000054                 44.9375      35.950000000000003
    61   1      3.5949999999999993      43.140000000000001      39.545000000000002
    62   1      3.5949999999999993                 44.9375      41.342500000000001
    63   1      5.3925000000000054      43.140000000000001      41.342500000000001
    64   1      5.3925000000000054                 44.9375      39.545000000000002
    65   1      3.5949999999999993      43.140000000000001      43.140000000000001
    66   1      3.5949999999999993                 44.9375                 44.9375
    67   1      5.3925000000000054      43.140000000000001                 44.9375
    68   1      5.3925000000000054                 44.9375      43.140000000000001
    69   1      3.5949999999999993      43.140000000000001      46.735000000000007
    70   1      3.5949999999999993                 44.9375      48.532500000000006
    71   1      5.3925000000000054      43.140000000000001      48.532500000000006
    72   1      5.3925000000000054                 44.9375      46.735000000000007
    73   1      3.5949999999999993      43.140000000000001      50.330000000000005
    74   1      3.5949999999999993                 44.9375      52.127500000000005
    75   1      5.3925000000000054      43.140000000000001      52.127500000000005
    76   1      5.3925000000000054                 44.9375      50.330000000000005
    77   1      3.5949999999999993      43.140000000000001      53.925000000000004
    78   1      3.5949999999999993                 44.9375      55.722500000000004
    79   1      5.3925000000000054      43.140000000000001      55.722500000000004
    80   1      5.3925000000000054                 44.9375      53.925000000000004
    81   1      5.3925000000000054      43.140000000000001      59.317499999999995
    82   1      5.3925000000000054                 44.9375       57.52000000000001
    83   1      5.3925000000000054                 44.9375      61.115000000000009
    84   1      5.3925000000000054      46.735000000000007      30.557500000000005
    85   1      5.3925000000000054      46.735000000000007      34.152500000000003
    86   1      5.3925000000000054      48.532500000000006      32.355000000000004
    87   1      3.5949999999999993      46.735000000000007      35.950000000000003
    88   1      3.5949999999999993      48.532500000000006      37.747500000000002
    89   1      5.3925000000000054      46.735000000000007      37.747500000000002
    90   1      5.3925000000000054      48.532500000000006      35.950000000000003
    91   1      3.5949999999999993      46.735000000000007      39.545000000000002
    92   1      3.5949999999999993      48.532500000000006      41.342500000000001
    93   1      5.3925000000000054      46.735000000000007      41.342500000000001
    94   1      5.3925000000000054      48.532500000000006      39.545000000000002
    95   1      3.5949999999999993      46.735000000000007      43.140000000000001
    96   1      3.5949999999999993      48.532500000000006                 44.9375
    97   1      5.3925000000000054      46.735000000000007                 44.9375
    98   1      5.3925000000000054      48.532500000000006      43.140000000000001
    99   1      3.5949999999999993      46.735000000000007      46.735000000000007
   100   1      3.5949999999999993      48.532500000000006      48.532500000000006
   101   1      5.3925000000000054      46.735000000000007      48.532500000000006
   102   1      5.3925000000000054      48.532500000000006      46.735000000000007
   103   1      3.5949999999999993      46.735000000000007      50.330000000000005
   104   1      3.5949999999999993      48.532500000000006      52.127500000000005
   105   1      5.3925000000000054      46.735000000000007      52.127500000000005
   106   1      5.3925000000000054      48.532500000000006      50.330000000000005
   107   1      3.5949999999999993      46.735000000000007      53.925000000000004
   108   1      3.5949999999999993      48.532500000000006      55.722500000000004
   109   1      5.3925000000000054      46.735000000000007      55.722500000000004
   110   1      5.3925000000000054      48.532500000000006      53.925000000000004
   111   1      3.5949999999999993      46.735000000000007       57.52000000000001
   112   1      5.3925000000000054      46.735000000000007      59.317499999999995
   113   1      5.3925000000000054      48.532500000000006       57.52000000000001
   114   1      5.3925000000000054      46.735000000000007      62.912500000000009
   115   1      5.3925000000000054      48.532500000000006      61.115000000000009
   116   1      5.3925000000000054      50.330000000000005      34.152500000000003
   117   1      5.3925000000000054      50.330000000000005      37.747500000000002
   118   1      5.3925000000000054      52.127500000000005      35.950000000000003
   119   1      3.5949999999999993      50.330000000000005      39.545000000000002
   120   1      3.5949999999999993      52.127500000000005      41.342500000000001
   121   1      5.3925000000000054      50.330000000000005      41.342500000000001
   122   1      5.3925000000000054      52.127500000000005      39.545000000000002
   123   1      3.5949999999999993      50.330000000000005      43.140000000000001
   124   1      3.5949999999999993      52.127500000000005                 44.9375
   125   1      5.3925000000000054      50.330000000000005                 44.9375
   126   1      5.3925000000000054      52.127500000000005      43.140000000000001
   127   1      3.5949999999999993      50.330000000000005      46.735000000000007
   128   1      3.5949999999999993      52.127500000000005      48.532500000000006
   129   1      5.3925000000000054      50.330000000000005      48.532500000000006
   130   1      5.3925000000000054      52.127500000000005      46.735000000000007
   131   1      3.5949999999999993      50.330000000000005      50.330000000000005
   132   1      3.5949999999999993      52.127500000000005      52.127500000000005
   133   1      5.3925000000000054      50.330000000000005      52.127500000000005
   134   1      5.3925000000000054      52.127500000000005      50.330000000000005
   135   1      3.5949999999999993      50.330000000000005      53.925000000000004
   136   1      5.3925000000000054      50.330000000000005      55.722500000000004
   137   1      5.3925000000000054      52.127500000000005      53.925000000000004
   138   1      5.3925000000000054      50.330000000000005      59.317499999999995
   139   1      5.3925000000000054      52.127500000000005       57.52000000000001
   140   1      5.3925000000000054      53.925000000000004      37.747500000000002
   141   1      5.3925000000000054      53.925000000000004      41.342500000000001
   142   1      5.3925000000000054      55.722500000000004      39.545000000000002
   143   1      3.5949999999999993      53.925000000000004      43.140000000000001
   144   1      3.5949999999999993      55.722500000000004                 44.9375
   145   1      5.3925000000000054      53.925000000000004                 44.9375
   146   1      5.3925000000000054      55.722500000000004      43.140000000000001
   147   1      3.5949999999999993      53.925000000000004      46.735000000000007
   148   1      3.5949999999999993      55.722500000000004      48.532500000000006
   149   1      5.3925000000000054      53.925000000000004      48.532500000000006
   150   1      5.3925000000000054      55.722500000000004      46.735000000000007
   151   1      3.5949999999999993      53.925000000000004      50.330000000000005
   152   1      5.3925000000000054      53.925000000000004      52.127500000000005
   153   1      5.3925000000000054      55.722500000000004      50.330000000000005
   154   1      5.3925000000000054      53.925000000000004      55.722500000000004
   155   1      5.3925000000000054      55.722500000000004      53.925000000000004
   156   1      5.3925000000000054       57.52000000000001      41.342500000000001
   157   1      5.3925000000000054       57.52000000000001                 44.9375
   158   1      5.3925000000000054      59.317499999999995      43.140000000000001
   159   1      3.5949999999999993       57.52000000000001      46.735000000000007
   160   1      5.3925000000000054       57.52000000000001      48.532500000000006
   161   1      5.3925000000000054      59.317499999999995      46.735000000000007
   162   1      5.3925000000000054       57.52000000000001      52.127500000000005
   163   1      5.3925000000000054      59.317499999999995      50.330000000000005
   164   1      5.3925000000000054      61.115000000000009                 44.9375
   165   1      5.3925000000000054      61.115000000000009      48.532500000000006
   166   1      5.3925000000000054      62.912500000000009      46.735000000000007
   167   1      8.9875000000000043      23.367500000000003      46.735000000000007
   168   1      8.9875000000000043      25.165000000000003                 44.9375
   169   1      8.9875000000000043      26.962500000000002      43.140000000000001
   170   1      8.9875000000000043      25.165000000000003      48.532500000000006
   171   1      8.9875000000000043      26.962500000000002      46.735000000000007
   172   1      8.9875000000000043      26.962500000000002      50.330000000000005
   173   1      8.9875000000000043      28.760000000000005      41.342500000000001
   174   1      8.9875000000000043      30.557500000000005      39.545000000000002
   175   1      7.1900000000000048      30.557500000000005                 44.9375
   176   1      8.9875000000000043      28.760000000000005                 44.9375
   177   1      8.9875000000000043      30.557500000000005      43.140000000000001
   178   1      7.1900000000000048      28.760000000000005      46.735000000000007
   179   1      7.1900000000000048      30.557500000000005      48.532500000000006
   180   1      8.9875000000000043      28.760000000000005      48.532500000000006
   181   1      8.9875000000000043      30.557500000000005      46.735000000000007
   182   1      8.9875000000000043      28.760000000000005      52.127500000000005
   183   1      8.9875000000000043      30.557500000000005      50.330000000000005
   184   1      8.9875000000000043      30.557500000000005      53.925000000000004
   185   1      8.9875000000000043      32.355000000000004      37.747500000000002
   186   1      8.9875000000000043      34.152500000000003      35.950000000000003
   187   1      7.1900000000000048      34.152500000000003      41.342500000000001
   188   1      8.9875000000000043      32.355000000000004      41.342500000000001
   189   1      8.9875000000000043      34.152500000000003      39.545000000000002
   190   1      7.1900000000000048      32.355000000000004      43.140000000000001
   191   1      7.1900000000000048      34.152500000000003                 44.9375
   192   1      8.9875000000000043      32.355000000000004                 44.9375
   193   1      8.9875000000000043      34.152500000000003      43.140000000000001
   194   1      7.1900000000000048      32.355000000000004      46.735000000000007
   195   1      7.1900000000000048      34.152500000000003      48.532500000000006
   196   1      8.9875000000000043      32.355000000000004      48.532500000000006
   197   1      8.9875000000000043      34.152500000000003      46.735000000000007
   198   1      7.1900000000000048      32.355000000000004      50.330000000000005
   199   1      7.1900000000000048      34.152500000000003      52.127500000000005
   200   1      8.9875000000000043      32.355000000000004      52.127500000000005
   201   1      8.9875000000000043      34.152500000000003      50.330000000000005
   202   1      8.9875000000000043      32.355000000000004      55.722500000000004
   203   1      8.9875000000000043      34.152500000000003      53.925000000000004
   204   1      8.9875000000000043      34.152500000000003       57.52000000000001
   205   1      8.9875000000000043      35.950000000000003      34.152500000000003
   206   1      8.9875000000000043      37.747500000000002      32.355000000000004
   207   1      7.1900000000000048      37.747500000000002      37.747500000000002
   208   1      8.9875000000000043      35.950000000000003      37.747500000000002
   209   1      8.9875000000000043      37.747500000000002      35.950000000000003
   210   1      7.1900000000000048      35.950000000000003      39.545000000000002
   211   1      7.1900000000000048      37.747500000000002      41.342500000000001
   212   1      8.9875000000000043      35.950000000000003      41.342500000000001
   213   1      8.9875000000000043      37.747500000000002      39.545000000000002
   214   1      7.1900000000000048      35.950000000000003      43.140000000000001
   215   1      7.1900000000000048      37.747500000000002                 44.9375
   216   1      8.9875000000000043      35.950000000000003                 44.9375
   217   1      8.9875000000000043      37.747500000000002      43.140000000000001
   218   1      7.1900000000000048      35.950000000000003      46.735000000000007
   219   1      7.1900000000000048      37.747500000000002      48.532500000000006
   220   1      8.9875000000000043      35.950000000000003      48.532500000000006
   221   1      8.9875000000000043      37.747500000000002      46.735000000000007
   222   1      7.1900000000000048      35.950000000000003      50.330000000000005
   223   1      7.1900000000000048      37.747500000000002      52.127500000000005
   224   1      8.9875000000000043      35.950000000000003      52.127500000000005
   225   1      8.9875000000000043      37.747500000000002      50.330000000000005
   226   1      7.1900000000000048      35.950000000000003      53.925000000000004
   227   1      7.1900000000000048      37.747500000000002      55.722500000000004
   228   1      8.9875000000000043      35.950000000000003      55.722500000000004
   229   1      8.9875000000000043      37.747500000000002      53.925000000000004
   230   1      8.9875000000000043      35.950000000000003      59.317499999999995
   231   1      8.9875000000000043      37.747500000000002       57.52000000000001
   232   1      8.9875000000000043      37.747500000000002      61.115000000000009
   233   1      8.9875000000000043      39.545000000000002      30.557500000000005
   234   1      8.9875000000000043      41.342500000000001      28.760000000000005
   235   1      7.1900000000000048      41.342500000000001      34.152500000000003
   236   1      8.9875000000000043      39.545000000000002      34.152500000000003
   237   1      8.9875000000000043      41.342500000000001      32.355000000000004
   238   1      7.1900000000000048      39.545000000000002      35.950000000000003
   239   1      7.1900000000000048      41.342500000000001      37.747500000000002
   240   1      8.9875000000000043      39.545000000000002      37.747500000000002
   241   1      8.9875000000000043      41.342500000000001      35.950000000000003
   242   1      7.1900000000000048      39.545000000000002      39.545000000000002
   243   1      7.1900000000000048      41.342500000000001      41.342500000000001
   244   1      8.9875000000000043      39.545000000000002      41.342500000000001
   245   1      8.9875000000000043      41.342500000000001      39.545000000000002
   246   1      7.1900000000000048      39.545000000000002      43.140000000000001
   247   1      7.1900000000000048      41.342500000000001                 44.9375
   248   1      8.9875000000000043      39.545000000000002                 44.9375
   249   1      8.9875000000000043      41.342500000000001      43.140000000000001
   250   1      7.1900000000000048      39.545000000000002      46.735000000000007
   251   1      7.1900000000000048      41.342500000000001      48.532500000000006
   252   1      8.9875000000000043      39.545000000000002      48.532500000000006
   253   1      8.9875000000000043      41.342500000000001      46.735000000000007
   254   1      7.1900000000000048      39.545000000000002      50.330000000000005
   255   1      7.1900000000000048      41.342500000000001      52.127500000000005
   256   1      8.9875000000000043      39.545000000000002      52.127500000000005
   257   1      8.9875000000000043      41.342500000000001      50.330000000000005
   258   1      7.1900000000000048      39.545000000000002      53.925000000000004
   259   1      7.1900000000000048      41.342500000000001      55.722500000000004
   260   1      8.9875000000000043      39.545000000000002      55.722500000000004
   261   1      8.9875000000000043      41.342500000000001      53.925000000000004
   262   1      7.1900000000000048      39.545000000000002       57.52000000000001
   263   1      7.1900000000000048      41.342500000000001      59.317499999999995
   264   1      8.9875000000000043      39.545000000000002      59.317499999999995
   265   1      8.9875000000000043      41.342500000000001       57.52000000000001
   266   1      8.9875000000000043      39.545000000000002      62.912500000000009
   267   1      8.9875000000000043      41.342500000000001      61.115000000000009
   268   1      8.9875000000000043      41.342500000000001      64.710000000000008
   269   1      8.9875000000000043      43.140000000000001      26.962500000000002
   270   1      8.9875000000000043                 44.9375      25.165000000000003
   271   1      7.1900000000000048                 44.9375      30.557500000000005
   272   1      8.9875000000000043      43.140000000000001      30.557500000000005
   273   1      8.9875000000000043                 44.9375      28.760000000000005
   274   1      7.1900000000000048      43.140000000000001      32.355000000000004
   275   1      7.1900000000000048                 44.9375      34.152500000000003
   276   1      8.9875000000000043      43.140000000000001      34.152500000000003
   277   1      8.9875000000000043                 44.9375      32.355000000000004
   278   1      7.1900000000000048      43.140000000000001      35.950000000000003
   279   1      7.1900000000000048                 44.9375      37.747500000000002
   280   1      8.9875000000000043      43.140000000000001      37.747500000000002
   281   1      8.9875000000000043                 44.9375      35.950000000000003
   282   1      7.1900000000000048      43.140000000000001      39.545000000000002
   283   1      7.1900000000000048                 44.9375      41.342500000000001
   284   1      8.9875000000000043      43.140000000000001      41.342500000000001
   285   1      8.9875000000000043                 44.9375      39.545000000000002
   286   1      7.1900000000000048      43.140000000000001      43.140000000000001
   287   1      7.1900000000000048                 44.9375                 44.9375
   288   1      8.9875000000000043      43.140000000000001                 44.9375
   289   1      8.9875000000000043                 44.9375      43.140000000000001
   290   1      7.1900000000000048      43.140000000000001      46.735000000000007
   291   1      7.1900000000000048                 44.9375      48.532500000000006
   292   1      8.9875000000000043      43.140000000000001      48.532500000000006
   293   1      8.9875000000000043                 44.9375      46.735000000000007
   294   1      7.1900000000000048      43.140000000000001      50.330000000000005
   295   1      7.1900000000000048                 44.9375      52.127500000000005
   296   1      8.9875000000000043      43.140000000000001      52.127500000000005
   297   1      8.9875000000000043                 44.9375      50.330000000000005
   298   1      7.1900000000000048      43.140000000000001      53.925000000000004
   299   1      7.1900000000000048                 44.9375      55.722500000000004
   300   1      8.9875000000000043      43.140000000000001      55.722500000000004
   301   1      8.9875000000000043                 44.9375      53.925000000000004
   302   1      7.1900000000000048      43.140000000000001       57.52000000000001
   303   1      7.1900000000000048                 44.9375      59.317499999999995
   304   1      8.9875000000000043      43.140000000000001      59.317499999999995
   305   1      8.9875000000000043                 44.9375       57.52000000000001
   306   1      7.1900000000000048      43.140000000000001      61.115000000000009
   307   1      7.1900000000000048                 44.9375      62.912500000000009
   308   1      8.9875000000000043      43.140000000000001      62.912500000000009
   309   1      8.9875000000000043                 44.9375      61.115000000000009
   310   1      8.9875000000000043      43.140000000000001      66.507500000000007
   311   1      8.9875000000000043                 44.9375      64.710000000000008
   312   1      8.9875000000000043                 44.9375      68.305000000000007
   313   1      8.9875000000000043      46.735000000000007      23.367500000000003
   314   1      8.9875000000000043      46.735000000000007      26.962500000000002
   315   1      8.9875000000000043      48.532500000000006      25.165000000000003
   316   1      7.1900000000000048      46.735000000000007      28.760000000000005
   317   1      7.1900000000000048      48.532500000000006      30.557500000000005
   318   1      8.9875000000000043      46.735000000000007      30.557500000000005
   319   1      8.9875000000000043      48.532500000000006      28.760000000000005
   320   1      7.1900000000000048      46.735000000000007      32.355000000000004
   321   1      7.1900000000000048      48.532500000000006      34.152500000000003
   322   1      8.9875000000000043      46.735000000000007      34.152500000000003
   323   1      8.9875000000000043      48.532500000000006      32.355000000000004
   324   1      7.1900000000000048      46.735000000000007      35.950000000000003
   325   1      7.1900000000000048      48.532500000000006      37.747500000000002
   326   1      8.9875000000000043      46.735000000000007      37.747500000000002
   327   1      8.9875000000000043      48.532500000000006      35.950000000000003
   328   1      7.1900000000000048      46.735000000000007      39.545000000000002
   329   1      7.1900000000000048      48.532500000000006      41.342500000000001
   330   1      8.9875000000000043      46.735000000000007      41.342500000000001
   331   1      8.9875000000000043      48.532500000000006      39.545000000000002
   332   1      7.1900000000000048      46.735000000000007      43.140000000000001
   333   1      7.1900000000000048      48.532500000000006                 44.9375
   334   1      8.9875000000000043      46.735000000000007                 44.9375
   335   1      8.9875000000000043      48.532500000000006      43.140000000000001
   336   1      7.1900000000000048      46.735000000000007      46.735000000000007
   337   1      7.1900000000000048      48.532500000000006      48.532500000000006
   338   1      8.9875000000000043      46.735000000000007      48.532500000000006
   339   1      8.9875000000000043      48.532500000000006      46.735000000000007
   340   1      7.1900000000000048      46.735000000000007      50.330000000000005
   341   1      7.1900000000000048      48.532500000000006      52.127500000000005
   342   1      8.9875000000000043      46.735000000000007      52.127500000000005
   343   1      8.9875000000000043      48.532500000000006      50.330000000000005
   344   1      7.1900000000000048      46.735000000000007      53.925000000000004
   345   1      7.1900000000000048      48.532500000000006      55.722500000000004
   346   1      8.9875000000000043      46.735000000000007      55.722500000000004
   347   1      8.9875000000000043      48.532500000000006      53.925000000000004
   348   1      7.1900000000000048      46.735000000000007       57.52000000000001
   349   1      7.1900000000000048      48.532500000000006      59.317499999999995
   350   1      8.9875000000000043      46.735000000000007      59.317499999999995
   351   1      8.9875000000000043      48.532500000000006       57.52000000000001
   352   1      7.1900000000000048      46.735000000000007      61.115000000000009
   353   1      7.1900000000000048      48.532500000000006      62.912500000000009
   354   1      8.9875000000000043      46.735000000000007      62.912500000000009
   355   1      8.9875000000000043      48.532500000000006      61.115000000000009
   356   1      7.1900000000000048      46.735000000000007      64.710000000000008
   357   1      8.9875000000000043      46.735000000000007      66.507500000000007
   358   1      8.9875000000000043      48.532500000000006      64.710000000000008