model_files/CuNi/CuNi_30000/CuNi_530/CuNi_530_fcc_29831_temp.data (written by ASE) 

29831 	 atoms 
2  atom types
0.0                      92  xlo xhi
0.0                      92  ylo yhi
0.0                      92  zlo zhi


Atoms 

     1   1                       0      44.575000000000003      44.575000000000003
     2   1      1.7830000000000013      42.792000000000002      44.575000000000003
     3   1      1.7830000000000013      44.575000000000003      42.792000000000002
     4   1                       0      44.575000000000003      48.140999999999998
     5   1      1.7830000000000013      42.792000000000002      48.140999999999998
     6   1      1.7830000000000013      44.575000000000003      46.358000000000004
     7   1      1.7830000000000013      44.575000000000003      49.923999999999992
     8   1                       0      48.140999999999998      44.575000000000003
     9   1      1.7830000000000013      46.358000000000004      44.575000000000003
    10   1      1.7830000000000013      48.140999999999998      42.792000000000002
    11   1                       0      46.358000000000004      46.358000000000004
    12   1                       0      48.140999999999998      48.140999999999998
    13   1      1.7830000000000013      46.358000000000004      48.140999999999998
    14   1      1.7830000000000013      48.140999999999998      46.358000000000004
    15   1      1.7830000000000013      48.140999999999998      49.923999999999992
    16   1      1.7830000000000013      49.923999999999992      44.575000000000003
    17   1      1.7830000000000013      49.923999999999992      48.140999999999998
    18   1      5.3489999999999966      35.660000000000004      37.443000000000005
    19   1      5.3489999999999966      37.443000000000005      35.660000000000004
    20   1      5.3489999999999966      35.660000000000004                  41.009
    21   1      5.3489999999999966      37.443000000000005      39.225999999999999
    22   1      5.3489999999999966      35.660000000000004      44.575000000000003
    23   1      5.3489999999999966      37.443000000000005      42.792000000000002
    24   1      5.3489999999999966      35.660000000000004      48.140999999999998
    25   1      5.3489999999999966      37.443000000000005      46.358000000000004
    26   1      5.3489999999999966      35.660000000000004      51.707000000000001
    27   1      5.3489999999999966      37.443000000000005      49.923999999999992
    28   1      5.3489999999999966      35.660000000000004      55.273000000000003
    29   1      5.3489999999999966      37.443000000000005      53.489999999999995
    30   1      5.3489999999999966      37.443000000000005      57.055999999999997
    31   1      5.3489999999999966      39.225999999999999      37.443000000000005
    32   1      5.3489999999999966                  41.009      35.660000000000004
    33   1      3.5659999999999954      39.225999999999999      39.225999999999999
    34   1      3.5659999999999954                  41.009                  41.009
    35   1      5.3489999999999966      39.225999999999999                  41.009
    36   1      5.3489999999999966                  41.009      39.225999999999999
    37   1      3.5659999999999954      39.225999999999999      42.792000000000002
    38   1      3.5659999999999954                  41.009      44.575000000000003
    39   1      5.3489999999999966      39.225999999999999      44.575000000000003
    40   1      5.3489999999999966                  41.009      42.792000000000002
    41   1      3.5659999999999954      39.225999999999999      46.358000000000004
    42   1      3.5659999999999954                  41.009      48.140999999999998
    43   1      5.3489999999999966      39.225999999999999      48.140999999999998
    44   1      5.3489999999999966                  41.009      46.358000000000004
    45   1      3.5659999999999954      39.225999999999999      49.923999999999992
    46   1      3.5659999999999954                  41.009      51.707000000000001
    47   1      5.3489999999999966      39.225999999999999      51.707000000000001
    48   1      5.3489999999999966                  41.009      49.923999999999992
    49   1      3.5659999999999954      39.225999999999999      53.489999999999995
    50   1      5.3489999999999966      39.225999999999999      55.273000000000003
    51   1      5.3489999999999966                  41.009      53.489999999999995
    52   1      5.3489999999999966                  41.009      57.055999999999997
    53   1      5.3489999999999966      42.792000000000002      37.443000000000005
    54   1      5.3489999999999966      44.575000000000003      35.660000000000004
    55   1      3.5659999999999954      42.792000000000002      39.225999999999999
    56   1      3.5659999999999954      44.575000000000003                  41.009
    57   1      5.3489999999999966      42.792000000000002                  41.009
    58   1      5.3489999999999966      44.575000000000003      39.225999999999999
    59   1      3.5659999999999954      42.792000000000002      42.792000000000002
    60   1      3.5659999999999954      44.575000000000003      44.575000000000003
    61   1      5.3489999999999966      42.792000000000002      44.575000000000003
    62   1      5.3489999999999966      44.575000000000003      42.792000000000002
    63   1      3.5659999999999954      42.792000000000002      46.358000000000004
    64   1      3.5659999999999954      44.575000000000003      48.140999999999998
    65   1      5.3489999999999966      42.792000000000002      48.140999999999998
    66   1      5.3489999999999966      44.575000000000003      46.358000000000004
    67   1      3.5659999999999954      42.792000000000002      49.923999999999992
    68   1      3.5659999999999954      44.575000000000003      51.707000000000001
    69   1      5.3489999999999966      42.792000000000002      51.707000000000001
    70   1      5.3489999999999966      44.575000000000003      49.923999999999992
    71   1      3.5659999999999954      42.792000000000002      53.489999999999995
    72   1      5.3489999999999966      42.792000000000002      55.273000000000003
    73   1      5.3489999999999966      44.575000000000003      53.489999999999995
    74   1      5.3489999999999966      44.575000000000003      57.055999999999997
    75   1      5.3489999999999966      46.358000000000004      37.443000000000005
    76   1      5.3489999999999966      48.140999999999998      35.660000000000004
    77   1      3.5659999999999954      46.358000000000004      39.225999999999999
    78   1      3.5659999999999954      48.140999999999998                  41.009
    79   1      5.3489999999999966      46.358000000000004                  41.009
    80   1      5.3489999999999966      48.140999999999998      39.225999999999999
    81   1      3.5659999999999954      46.358000000000004      42.792000000000002
    82   1      3.5659999999999954      48.140999999999998      44.575000000000003
    83   1      5.3489999999999966      46.358000000000004      44.575000000000003
    84   1      5.3489999999999966      48.140999999999998      42.792000000000002
    85   1      3.5659999999999954      46.358000000000004      46.358000000000004
    86   1      3.5659999999999954      48.140999999999998      48.140999999999998
    87   1      5.3489999999999966      46.358000000000004      48.140999999999998
    88   1      5.3489999999999966      48.140999999999998      46.358000000000004
    89   1      3.5659999999999954      46.358000000000004      49.923999999999992
    90   1      3.5659999999999954      48.140999999999998      51.707000000000001
    91   1      5.3489999999999966      46.358000000000004      51.707000000000001
    92   1      5.3489999999999966      48.140999999999998      49.923999999999992
    93   1      3.5659999999999954      46.358000000000004      53.489999999999995
    94   1      5.3489999999999966      46.358000000000004      55.273000000000003
    95   1      5.3489999999999966      48.140999999999998      53.489999999999995
    96   1      5.3489999999999966      48.140999999999998      57.055999999999997
    97   1      5.3489999999999966      49.923999999999992      37.443000000000005
    98   1      5.3489999999999966      51.707000000000001      35.660000000000004
    99   1      3.5659999999999954      49.923999999999992      39.225999999999999
   100   1      3.5659999999999954      51.707000000000001                  41.009
   101   1      5.3489999999999966      49.923999999999992                  41.009
   102   1      5.3489999999999966      51.707000000000001      39.225999999999999
   103   1      3.5659999999999954      49.923999999999992      42.792000000000002
   104   1      3.5659999999999954      51.707000000000001      44.575000000000003
   105   1      5.3489999999999966      49.923999999999992      44.575000000000003
   106   1      5.3489999999999966      51.707000000000001      42.792000000000002
   107   1      3.5659999999999954      49.923999999999992      46.358000000000004
   108   1      3.5659999999999954      51.707000000000001      48.140999999999998
   109   1      5.3489999999999966      49.923999999999992      48.140999999999998
   110   1      5.3489999999999966      51.707000000000001      46.358000000000004
   111   1      3.5659999999999954      49.923999999999992      49.923999999999992
   112   1      3.5659999999999954      51.707000000000001      51.707000000000001
   113   1      5.3489999999999966      49.923999999999992      51.707000000000001
   114   1      5.3489999999999966      51.707000000000001      49.923999999999992
   115   1      3.5659999999999954      49.923999999999992      53.489999999999995
   116   1      5.3489999999999966      49.923999999999992      55.273000000000003
   117   1      5.3489999999999966      51.707000000000001      53.489999999999995
   118   1      5.3489999999999966      51.707000000000001      57.055999999999997
   119   1      5.3489999999999966      53.489999999999995      37.443000000000005
   120   1      5.3489999999999966      55.273000000000003      35.660000000000004
   121   1      3.5659999999999954      53.489999999999995      39.225999999999999
   122   1      5.3489999999999966      53.489999999999995                  41.009
   123   1      5.3489999999999966      55.273000000000003      39.225999999999999
   124   1      3.5659999999999954      53.489999999999995      42.792000000000002
   125   1      5.3489999999999966      53.489999999999995      44.575000000000003
   126   1      5.3489999999999966      55.273000000000003      42.792000000000002
   127   1      3.5659999999999954      53.489999999999995      46.358000000000004
   128   1      5.3489999999999966      53.489999999999995      48.140999999999998
   129   1      5.3489999999999966      55.273000000000003      46.358000000000004
   130   1      3.5659999999999954      53.489999999999995      49.923999999999992
   131   1      5.3489999999999966      53.489999999999995      51.707000000000001
   132   1      5.3489999999999966      55.273000000000003      49.923999999999992
   133   1      3.5659999999999954      53.489999999999995      53.489999999999995
   134   1      5.3489999999999966      53.489999999999995      55.273000000000003
   135   1      5.3489999999999966      55.273000000000003      53.489999999999995
   136   1      5.3489999999999966      55.273000000000003      57.055999999999997
   137   1      5.3489999999999966      57.055999999999997      37.443000000000005
   138   1      5.3489999999999966      57.055999999999997                  41.009
   139   1      5.3489999999999966      57.055999999999997      44.575000000000003
   140   1      5.3489999999999966      57.055999999999997      48.140999999999998
   141   1      5.3489999999999966      57.055999999999997      51.707000000000001
   142   1      5.3489999999999966      57.055999999999997      55.273000000000003
   143   1      8.9149999999999991                  30.311      32.094000000000001
   144   1      8.9149999999999991                  30.311      35.660000000000004
   145   1      8.9149999999999991                  30.311      39.225999999999999
   146   1      8.9149999999999991                  30.311      42.792000000000002
   147   1      8.9149999999999991                  30.311      46.358000000000004
   148   1      8.9149999999999991                  30.311      49.923999999999992
   149   1      8.9149999999999991                  30.311      53.489999999999995
   150   1      8.9149999999999991                  30.311      57.055999999999997
   151   1      8.9149999999999991                  30.311                  60.622
   152   1      8.9149999999999991      32.094000000000001                  30.311
   153   1       7.131999999999997      33.877000000000002      33.877000000000002
   154   1      8.9149999999999991      32.094000000000001      33.877000000000002
   155   1      8.9149999999999991      33.877000000000002      32.094000000000001
   156   1       7.131999999999997      33.877000000000002      37.443000000000005
   157   1      8.9149999999999991      32.094000000000001      37.443000000000005
   158   1      8.9149999999999991      33.877000000000002      35.660000000000004
   159   1       7.131999999999997      33.877000000000002                  41.009
   160   1      8.9149999999999991      32.094000000000001                  41.009
   161   1      8.9149999999999991      33.877000000000002      39.225999999999999
   162   1       7.131999999999997      33.877000000000002      44.575000000000003
   163   1      8.9149999999999991      32.094000000000001      44.575000000000003
   164   1      8.9149999999999991      33.877000000000002      42.792000000000002
   165   1       7.131999999999997      33.877000000000002      48.140999999999998
   166   1      8.9149999999999991      32.094000000000001      48.140999999999998
   167   1      8.9149999999999991      33.877000000000002      46.358000000000004
   168   1       7.131999999999997      33.877000000000002      51.707000000000001
   169   1      8.9149999999999991      32.094000000000001      51.707000000000001
   170   1      8.9149999999999991      33.877000000000002      49.923999999999992
   171   1       7.131999999999997      33.877000000000002      55.273000000000003
   172   1      8.9149999999999991      32.094000000000001      55.273000000000003
   173   1      8.9149999999999991      33.877000000000002      53.489999999999995
   174   1       7.131999999999997      33.877000000000002      58.839000000000006
   175   1      8.9149999999999991      32.094000000000001      58.839000000000006
   176   1      8.9149999999999991      33.877000000000002      57.055999999999997
   177   1      8.9149999999999991      32.094000000000001      62.404999999999994
   178   1      8.9149999999999991      33.877000000000002                  60.622
   179   1      8.9149999999999991      35.660000000000004                  30.311
   180   1       7.131999999999997      37.443000000000005      33.877000000000002
   181   1      8.9149999999999991      35.660000000000004      33.877000000000002
   182   1      8.9149999999999991      37.443000000000005      32.094000000000001
   183   1       7.131999999999997      35.660000000000004      35.660000000000004
   184   1       7.131999999999997      37.443000000000005      37.443000000000005
   185   1      8.9149999999999991      35.660000000000004      37.443000000000005
   186   1      8.9149999999999991      37.443000000000005      35.660000000000004
   187   1       7.131999999999997      35.660000000000004      39.225999999999999
   188   1       7.131999999999997      37.443000000000005                  41.009
   189   1      8.9149999999999991      35.660000000000004                  41.009
   190   1      8.9149999999999991      37.443000000000005      39.225999999999999
   191   1       7.131999999999997      35.660000000000004      42.792000000000002
   192   1       7.131999999999997      37.443000000000005      44.575000000000003
   193   1      8.9149999999999991      35.660000000000004      44.575000000000003
   194   1      8.9149999999999991      37.443000000000005      42.792000000000002
   195   1       7.131999999999997      35.660000000000004      46.358000000000004
   196   1       7.131999999999997      37.443000000000005      48.140999999999998
   197   1      8.9149999999999991      35.660000000000004      48.140999999999998
   198   1      8.9149999999999991      37.443000000000005      46.358000000000004
   199   1       7.131999999999997      35.660000000000004      49.923999999999992
   200   1       7.131999999999997      37.443000000000005      51.707000000000001
   201   1      8.9149999999999991      35.660000000000004      51.707000000000001
   202   1      8.9149999999999991      37.443000000000005      49.923999999999992
   203   1       7.131999999999997      35.660000000000004      53.489999999999995
   204   1       7.131999999999997      37.443000000000005      55.273000000000003
   205   1      8.9149999999999991      35.660000000000004      55.273000000000003
   206   1      8.9149999999999991      37.443000000000005      53.489999999999995
   207   1       7.131999999999997      35.660000000000004      57.055999999999997
   208   1       7.131999999999997      37.443000000000005      58.839000000000006
   209   1      8.9149999999999991      35.660000000000004      58.839000000000006
   210   1      8.9149999999999991      37.443000000000005      57.055999999999997
   211   1      8.9149999999999991      35.660000000000004      62.404999999999994
   212   1      8.9149999999999991      37.443000000000005                  60.622
   213   1      8.9149999999999991      39.225999999999999                  30.311
   214   1       7.131999999999997                  41.009      33.877000000000002
   215   1      8.9149999999999991      39.225999999999999      33.877000000000002
   216   1      8.9149999999999991                  41.009      32.094000000000001
   217   1       7.131999999999997      39.225999999999999      35.660000000000004
   218   1       7.131999999999997                  41.009      37.443000000000005
   219   1      8.9149999999999991      39.225999999999999      37.443000000000005
   220   1      8.9149999999999991                  41.009      35.660000000000004
   221   1       7.131999999999997      39.225999999999999      39.225999999999999
   222   1       7.131999999999997                  41.009                  41.009
   223   1      8.9149999999999991      39.225999999999999                  41.009
   224   1      8.9149999999999991                  41.009      39.225999999999999
   225   1       7.131999999999997      39.225999999999999      42.792000000000002
   226   1       7.131999999999997                  41.009      44.575000000000003
   227   1      8.9149999999999991      39.225999999999999      44.575000000000003
   228   1      8.9149999999999991                  41.009      42.792000000000002
   229   1       7.131999999999997      39.225999999999999      46.358000000000004
   230   1       7.131999999999997                  41.009      48.140999999999998
   231   1      8.9149999999999991      39.225999999999999      48.140999999999998
   232   1      8.9149999999999991                  41.009      46.358000000000004
   233   1       7.131999999999997      39.225999999999999      49.923999999999992
   234   1       7.131999999999997                  41.009      51.707000000000001
   235   1      8.9149999999999991      39.225999999999999      51.707000000000001
   236   1      8.9149999999999991                  41.009      49.923999999999992
   237   1       7.131999999999997      39.225999999999999      53.489999999999995
   238   1       7.131999999999997                  41.009      55.273000000000003
   239   1      8.9149999999999991      39.225999999999999      55.273000000000003
   240   1      8.9149999999999991                  41.009      53.489999999999995
   241   1       7.131999999999997      39.225999999999999      57.055999999999997
   242   1       7.131999999999997                  41.009      58.839000000000006
   243   1      8.9149999999999991      39.225999999999999      58.839000000000006
   244   1      8.9149999999999991                  41.009      57.055999999999997
   245   1      8.9149999999999991      39.225999999999999      62.404999999999994
   246   1      8.9149999999999991                  41.009                  60.622
   247   1      8.9149999999999991      42.792000000000002                  30.311
   248   1       7.131999999999997      44.575000000000003      33.877000000000002
   249   1      8.9149999999999991      42.792000000000002      33.877000000000002
   250   1      8.9149999999999991      44.575000000000003      32.094000000000001
   251   1       7.131999999999997      42.792000000000002      35.660000000000004
   252   1       7.131999999999997      44.575000000000003      37.443000000000005
   253   1      8.9149999999999991      42.792000000000002      37.443000000000005
   254   1      8.9149999999999991      44.575000000000003      35.660000000000004
   255   1       7.131999999999997      42.792000000000002      39.225999999999999
   256   1       7.131999999999997      44.575000000000003                  41.009
   257   1      8.9149999999999991      42.792000000000002                  41.009
   258   1      8.9149999999999991      44.575000000000003      39.225999999999999
   259   1       7.131999999999997      42.792000000000002      42.792000000000002
   260   1       7.131999999999997      44.575000000000003      44.575000000000003
   261   1      8.9149999999999991      42.792000000000002      44.575000000000003
   262   1      8.9149999999999991      44.575000000000003      42.792000000000002
   263   1       7.131999999999997      42.792000000000002      46.358000000000004
   264   1       7.131999999999997      44.575000000000003      48.140999999999998
   265   1      8.9149999999999991      42.792000000000002      48.140999999999998
   266   1      8.9149999999999991      44.575000000000003      46.358000000000004
   267   1       7.131999999999997      42.792000000000002      49.923999999999992
   268   1       7.131999999999997      44.575000000000003      51.707000000000001
   269   1      8.9149999999999991      42.792000000000002      51.707000000000001
   270   1      8.9149999999999991      44.575000000000003      49.923999999999992
   271   1       7.131999999999997      42.792000000000002      53.489999999999995
   272   1       7.131999999999997      44.575000000000003      55.273000000000003
   273   1      8.9149999999999991      42.792000000000002      55.273000000000003
   274   1      8.9149999999999991      44.575000000000003      53.489999999999995
   275   1       7.131999999999997      42.792000000000002      57.055999999999997
   276   1       7.131999999999997      44.575000000000003      58.839000000000006
   277   1      8.9149999999999991      42.792000000000002      58.839000000000006
   278   1      8.9149999999999991      44.575000000000003      57.055999999999997
   279   1      8.9149999999999991      42.792000000000002      62.404999999999994
   280   1      8.9149999999999991      44.575000000000003                  60.622
   281   1      8.9149999999999991      46.358000000000004                  30.311
   282   1       7.131999999999997      48.140999999999998      33.877000000000002
   283   1      8.9149999999999991      46.358000000000004      33.877000000000002
   284   1      8.9149999999999991      48.140999999999998      32.094000000000001
   285   1       7.131999999999997      46.358000000000004      35.660000000000004
   286   1       7.131999999999997      48.140999999999998      37.443000000000005
   287   1      8.9149999999999991      46.358000000000004      37.443000000000005
   288   1      8.9149999999999991      48.140999999999998      35.660000000000004
   289   1       7.131999999999997      46.358000000000004      39.225999999999999
   290   1       7.131999999999997      48.140999999999998                  41.009
   291   1      8.9149999999999991      46.358000000000004                  41.009
   292   1      8.9149999999999991      48.140999999999998      39.225999999999999
   293   1       7.131999999999997      46.358000000000004      42.792000000000002
   294   1       7.131999999999997      48.140999999999998      44.575000000000003
   295   1      8.9149999999999991      46.358000000000004      44.575000000000003
   296   1      8.9149999999999991      48.140999999999998      42.792000000000002
   297   1       7.131999999999997      46.358000000000004      46.358000000000004
   298   1       7.131999999999997      48.140999999999998      48.140999999999998
   299   1      8.9149999999999991      46.358000000000004      48.140999999999998
   300   1      8.9149999999999991      48.140999999999998      46.358000000000004
   301   1       7.131999999999997      46.358000000000004      49.923999999999992
   302   1       7.131999999999997      48.140999999999998      51.707000000000001
   303   1      8.9149999999999991      46.358000000000004      51.707000000000001
   304   1      8.9149999999999991      48.140999999999998      49.923999999999992
   305   1       7.131999999999997      46.358000000000004      53.489999999999995
   306   1       7.131999999999997      48.140999999999998      55.273000000000003
   307   1      8.9149999999999991      46.358000000000004      55.273000000000003
   308   1      8.9149999999999991      48.140999999999998      53.489999999999995
   309   1       7.131999999999997      46.358000000000004      57.055999999999997
   310   1       7.131999999999997      48.140999999999998      58.839000000000006
   311   1      8.9149999999999991      46.358000000000004      58.839000000000006
   312   1      8.9149999999999991      48.140999999999998      57.055999999999997
   313   1      8.9149999999999991      46.358000000000004      62.404999999999994
   314   1      8.9149999999999991      48.140999999999998                  60.622
   315   1      8.9149999999999991      49.923999999999992                  30.311
   316   1       7.131999999999997      51.707000000000001      33.877000000000002
   317   1      8.9149999999999991      49.923999999999992      33.877000000000002
   318   1      8.9149999999999991      51.707000000000001      32.094000000000001
   319   1       7.131999999999997      49.923999999999992      35.660000000000004
   320   1       7.131999999999997      51.707000000000001      37.443000000000005
   321   1      8.9149999999999991      49.923999999999992      37.443000000000005
   322   1      8.9149999999999991      51.707000000000001      35.660000000000004
   323   1       7.131999999999997      49.923999999999992      39.225999999999999
   324   1       7.131999999999997      51.707000000000001                  41.009
   325   1      8.9149999999999991      49.923999999999992                  41.009
   326   1      8.9149999999999991      51.707000000000001      39.225999999999999
   327   1       7.131999999999997      49.923999999999992      42.792000000000002
   328   1       7.131999999999997      51.707000000000001      44.575000000000003
   329   1      8.9149999999999991      49.923999999999992      44.575000000000003
   330   1      8.9149999999999991      51.707000000000001      42.792000000000002
   331   1       7.131999999999997      49.923999999999992      46.358000000000004
   332   1       7.131999999999997      51.707000000000001      48.140999999999998
   333   1      8.9149999999999991      49.923999999999992      48.140999999999998
   334   1      8.9149999999999991      51.707000000000001      46.358000000000004
   335   1       7.131999999999997      49.923999999999992      49.923999999999992
   336   1       7.131999999999997      51.707000000000001      51.707000000000001
   337   1      8.9149999999999991      49.923999999999992      51.707000000000001
   338   1      8.9149999999999991      51.707000000000001      49.923999999999992
   339   1       7.131999999999997      49.923999999999992      53.489999999999995
   340   1       7.131999999999997      51.707000000000001      55.273000000000003
   341   1      8.9149999999999991      49.923999999999992      55.273000000000003
   342   1      8.9149999999999991      51.707000000000001      53.489999999999995
   343   1       7.131999999999997      49.923999999999992      57.055999999999997
   344   1       7.131999999999997      51.707000000000001      58.839000000000006
   345   1      8.9149999999999991      49.923999999999992      58.839000000000006
   346   1      8.9149999999999991      51.707000000000001      57.055999999999997
   347   1      8.9149999999999991      49.923999999999992      62.404999999999994
   348   1      8.9149999999999991      51.707000000000001                  60.622
   349   1      8.9149999999999991      53.489999999999995                  30.311
   350   1       7.131999999999997      55.273000000000003      33.877000000000002
   351   1      8.9149999999999991      53.489999999999995      33.877000000000002
   352   1      8.9149999999999991      55.273000000000003      32.094000000000001
   353   1       7.131999999999997      53.489999999999995      35.660000000000004
   354   1       7.131999999999997      55.273000000000003      37.443000000000005
   355   1      8.9149999999999991      53.489999999999995      37.443000000000005
   356   1      8.9149999999999991      55.273000000000003      35.660000000000004
   357   1       7.131999999999997      53.489999999999995      39.225999999999999
   358   1       7.131999999999997      55.273000000000003                  41.009