model_files/Pt/Pt_10000/Pt_543/data.Pt_543_fcc_10035 (written by ASE) 

10035 	 atoms 
1  atom types
0.0                      86  xlo xhi
0.0                      86  ylo yhi
0.0                      86  zlo zhi


Atoms 

     1   1      1.9600000000000009      41.159999999999997      43.119999999999997
     2   1      1.9600000000000009      43.119999999999997      41.159999999999997
     3   1                       0      43.119999999999997      43.119999999999997
     4   1      1.9600000000000009      43.119999999999997      45.079999999999998
     5   1      1.9600000000000009      45.079999999999998      43.119999999999997
     6   1      5.8800000000000017      37.240000000000002      43.119999999999997
     7   1      3.9199999999999942      41.159999999999997      41.159999999999997
     8   1      5.8800000000000017      39.199999999999996      41.159999999999997
     9   1      5.8800000000000017      41.159999999999997      39.199999999999996
    10   1      3.9199999999999942      39.199999999999996      43.119999999999997
    11   1      3.9199999999999942      41.159999999999997      45.079999999999998
    12   1      5.8800000000000017      39.199999999999996      45.079999999999998
    13   1      5.8800000000000017      41.159999999999997      43.119999999999997
    14   1      5.8800000000000017      41.159999999999997      47.039999999999999
    15   1      5.8800000000000017      43.119999999999997      37.240000000000002
    16   1      3.9199999999999942      43.119999999999997      39.199999999999996
    17   1      3.9199999999999942      45.079999999999998      41.159999999999997
    18   1      5.8800000000000017      43.119999999999997      41.159999999999997
    19   1      5.8800000000000017      45.079999999999998      39.199999999999996
    20   1      3.9199999999999942      43.119999999999997      43.119999999999997
    21   1      3.9199999999999942      45.079999999999998      45.079999999999998
    22   1      5.8800000000000017      43.119999999999997      45.079999999999998
    23   1      5.8800000000000017      45.079999999999998      43.119999999999997
    24   1      3.9199999999999942      43.119999999999997      47.039999999999999
    25   1      5.8800000000000017      43.119999999999997                      49
    26   1      5.8800000000000017      45.079999999999998      47.039999999999999
    27   1      5.8800000000000017      47.039999999999999      41.159999999999997
    28   1      3.9199999999999942      47.039999999999999      43.119999999999997
    29   1      5.8800000000000017      47.039999999999999      45.079999999999998
    30   1      5.8800000000000017                      49      43.119999999999997
    31   1      9.7999999999999972                   33.32      43.119999999999997
    32   1      9.7999999999999972      35.280000000000001      37.240000000000002
    33   1      9.7999999999999972      37.240000000000002      35.280000000000001
    34   1      7.8399999999999954      37.240000000000002      41.159999999999997
    35   1      9.7999999999999972      35.280000000000001      41.159999999999997
    36   1      9.7999999999999972      37.240000000000002      39.199999999999996
    37   1      7.8399999999999954      35.280000000000001      43.119999999999997
    38   1      7.8399999999999954      37.240000000000002      45.079999999999998
    39   1      9.7999999999999972      35.280000000000001      45.079999999999998
    40   1      9.7999999999999972      37.240000000000002      43.119999999999997
    41   1      9.7999999999999972      35.280000000000001                      49
    42   1      9.7999999999999972      37.240000000000002      47.039999999999999
    43   1      9.7999999999999972      37.240000000000002      50.959999999999994
    44   1      7.8399999999999954      41.159999999999997      37.240000000000002
    45   1      9.7999999999999972      39.199999999999996      37.240000000000002
    46   1      9.7999999999999972      41.159999999999997      35.280000000000001
    47   1      7.8399999999999954      39.199999999999996      39.199999999999996
    48   1      7.8399999999999954      41.159999999999997      41.159999999999997
    49   1      9.7999999999999972      39.199999999999996      41.159999999999997
    50   1      9.7999999999999972      41.159999999999997      39.199999999999996
    51   1      7.8399999999999954      39.199999999999996      43.119999999999997
    52   1      7.8399999999999954      41.159999999999997      45.079999999999998
    53   1      9.7999999999999972      39.199999999999996      45.079999999999998
    54   1      9.7999999999999972      41.159999999999997      43.119999999999997
    55   1      7.8399999999999954      39.199999999999996      47.039999999999999
    56   1      7.8399999999999954      41.159999999999997                      49
    57   1      9.7999999999999972      39.199999999999996                      49
    58   1      9.7999999999999972      41.159999999999997      47.039999999999999
    59   1      9.7999999999999972      41.159999999999997      50.959999999999994
    60   1      9.7999999999999972      43.119999999999997                   33.32
    61   1      7.8399999999999954      43.119999999999997      35.280000000000001
    62   1      7.8399999999999954      45.079999999999998      37.240000000000002
    63   1      9.7999999999999972      43.119999999999997      37.240000000000002
    64   1      9.7999999999999972      45.079999999999998      35.280000000000001
    65   1      7.8399999999999954      43.119999999999997      39.199999999999996
    66   1      7.8399999999999954      45.079999999999998      41.159999999999997
    67   1      9.7999999999999972      43.119999999999997      41.159999999999997
    68   1      9.7999999999999972      45.079999999999998      39.199999999999996
    69   1      7.8399999999999954      43.119999999999997      43.119999999999997
    70   1      7.8399999999999954      45.079999999999998      45.079999999999998
    71   1      9.7999999999999972      43.119999999999997      45.079999999999998
    72   1      9.7999999999999972      45.079999999999998      43.119999999999997
    73   1      7.8399999999999954      43.119999999999997      47.039999999999999
    74   1      7.8399999999999954      45.079999999999998                      49
    75   1      9.7999999999999972      43.119999999999997                      49
    76   1      9.7999999999999972      45.079999999999998      47.039999999999999
    77   1      7.8399999999999954      43.119999999999997      50.959999999999994
    78   1      9.7999999999999972      43.119999999999997      52.919999999999995
    79   1      9.7999999999999972      45.079999999999998      50.959999999999994
    80   1      9.7999999999999972      47.039999999999999      37.240000000000002
    81   1      9.7999999999999972                      49      35.280000000000001
    82   1      7.8399999999999954      47.039999999999999      39.199999999999996
    83   1      7.8399999999999954                      49      41.159999999999997
    84   1      9.7999999999999972      47.039999999999999      41.159999999999997
    85   1      9.7999999999999972                      49      39.199999999999996
    86   1      7.8399999999999954      47.039999999999999      43.119999999999997
    87   1      7.8399999999999954                      49      45.079999999999998
    88   1      9.7999999999999972      47.039999999999999      45.079999999999998
    89   1      9.7999999999999972                      49      43.119999999999997
    90   1      7.8399999999999954      47.039999999999999      47.039999999999999
    91   1      9.7999999999999972      47.039999999999999                      49
    92   1      9.7999999999999972                      49      47.039999999999999
    93   1      9.7999999999999972                      49      50.959999999999994
    94   1      9.7999999999999972      50.959999999999994      37.240000000000002
    95   1      9.7999999999999972      50.959999999999994      41.159999999999997
    96   1      7.8399999999999954      50.959999999999994      43.119999999999997
    97   1      9.7999999999999972      50.959999999999994      45.079999999999998
    98   1      9.7999999999999972      52.919999999999995      43.119999999999997
    99   1      9.7999999999999972      50.959999999999994                      49
   100   1      13.719999999999999      27.439999999999998      41.159999999999997
   101   1      13.719999999999999      29.399999999999999      39.199999999999996
   102   1      13.719999999999999      27.439999999999998      45.079999999999998
   103   1      13.719999999999999      29.399999999999999      43.119999999999997
   104   1      13.719999999999999      29.399999999999999      47.039999999999999
   105   1      11.759999999999996                   33.32      37.240000000000002
   106   1      13.719999999999999      31.359999999999999      37.240000000000002
   107   1      13.719999999999999                   33.32      35.280000000000001
   108   1      11.759999999999996      31.359999999999999      39.199999999999996
   109   1      11.759999999999996                   33.32      41.159999999999997
   110   1      13.719999999999999      31.359999999999999      41.159999999999997
   111   1      13.719999999999999                   33.32      39.199999999999996
   112   1      11.759999999999996      31.359999999999999      43.119999999999997
   113   1      11.759999999999996                   33.32      45.079999999999998
   114   1      13.719999999999999      31.359999999999999      45.079999999999998
   115   1      13.719999999999999                   33.32      43.119999999999997
   116   1      11.759999999999996      31.359999999999999      47.039999999999999
   117   1      11.759999999999996                   33.32                      49
   118   1      13.719999999999999      31.359999999999999                      49
   119   1      13.719999999999999                   33.32      47.039999999999999
   120   1      13.719999999999999                   33.32      50.959999999999994
   121   1      11.759999999999996      37.240000000000002                   33.32
   122   1      13.719999999999999      35.280000000000001                   33.32
   123   1      13.719999999999999      37.240000000000002      31.359999999999999
   124   1      11.759999999999996      35.280000000000001      35.280000000000001
   125   1      11.759999999999996      37.240000000000002      37.240000000000002
   126   1      13.719999999999999      35.280000000000001      37.240000000000002
   127   1      13.719999999999999      37.240000000000002      35.280000000000001
   128   1      11.759999999999996      35.280000000000001      39.199999999999996
   129   1      11.759999999999996      37.240000000000002      41.159999999999997
   130   1      13.719999999999999      35.280000000000001      41.159999999999997
   131   1      13.719999999999999      37.240000000000002      39.199999999999996
   132   1      11.759999999999996      35.280000000000001      43.119999999999997
   133   1      11.759999999999996      37.240000000000002      45.079999999999998
   134   1      13.719999999999999      35.280000000000001      45.079999999999998
   135   1      13.719999999999999      37.240000000000002      43.119999999999997
   136   1      11.759999999999996      35.280000000000001      47.039999999999999
   137   1      11.759999999999996      37.240000000000002                      49
   138   1      13.719999999999999      35.280000000000001                      49
   139   1      13.719999999999999      37.240000000000002      47.039999999999999
   140   1      11.759999999999996      35.280000000000001      50.959999999999994
   141   1      11.759999999999996      37.240000000000002      52.919999999999995
   142   1      13.719999999999999      35.280000000000001      52.919999999999995
   143   1      13.719999999999999      37.240000000000002      50.959999999999994
   144   1      13.719999999999999      37.240000000000002      54.879999999999995
   145   1      13.719999999999999      39.199999999999996      29.399999999999999
   146   1      13.719999999999999      41.159999999999997      27.439999999999998
   147   1      11.759999999999996      39.199999999999996      31.359999999999999
   148   1      11.759999999999996      41.159999999999997                   33.32
   149   1      13.719999999999999      39.199999999999996                   33.32
   150   1      13.719999999999999      41.159999999999997      31.359999999999999
   151   1      11.759999999999996      39.199999999999996      35.280000000000001
   152   1      11.759999999999996      41.159999999999997      37.240000000000002
   153   1      13.719999999999999      39.199999999999996      37.240000000000002
   154   1      13.719999999999999      41.159999999999997      35.280000000000001
   155   1      11.759999999999996      39.199999999999996      39.199999999999996
   156   1      11.759999999999996      41.159999999999997      41.159999999999997
   157   1      13.719999999999999      39.199999999999996      41.159999999999997
   158   1      13.719999999999999      41.159999999999997      39.199999999999996
   159   1      11.759999999999996      39.199999999999996      43.119999999999997
   160   1      11.759999999999996      41.159999999999997      45.079999999999998
   161   1      13.719999999999999      39.199999999999996      45.079999999999998
   162   1      13.719999999999999      41.159999999999997      43.119999999999997
   163   1      11.759999999999996      39.199999999999996      47.039999999999999
   164   1      11.759999999999996      41.159999999999997                      49
   165   1      13.719999999999999      39.199999999999996                      49
   166   1      13.719999999999999      41.159999999999997      47.039999999999999
   167   1      11.759999999999996      39.199999999999996      50.959999999999994
   168   1      11.759999999999996      41.159999999999997      52.919999999999995
   169   1      13.719999999999999      39.199999999999996      52.919999999999995
   170   1      13.719999999999999      41.159999999999997      50.959999999999994
   171   1      11.759999999999996      39.199999999999996      54.879999999999995
   172   1      13.719999999999999      39.199999999999996      56.839999999999989
   173   1      13.719999999999999      41.159999999999997      54.879999999999995
   174   1      13.719999999999999      41.159999999999997      58.799999999999997
   175   1      13.719999999999999      43.119999999999997      29.399999999999999
   176   1      13.719999999999999      45.079999999999998      27.439999999999998
   177   1      11.759999999999996      43.119999999999997      31.359999999999999
   178   1      11.759999999999996      45.079999999999998                   33.32
   179   1      13.719999999999999      43.119999999999997                   33.32
   180   1      13.719999999999999      45.079999999999998      31.359999999999999
   181   1      11.759999999999996      43.119999999999997      35.280000000000001
   182   1      11.759999999999996      45.079999999999998      37.240000000000002
   183   1      13.719999999999999      43.119999999999997      37.240000000000002
   184   1      13.719999999999999      45.079999999999998      35.280000000000001
   185   1      11.759999999999996      43.119999999999997      39.199999999999996
   186   1      11.759999999999996      45.079999999999998      41.159999999999997
   187   1      13.719999999999999      43.119999999999997      41.159999999999997
   188   1      13.719999999999999      45.079999999999998      39.199999999999996
   189   1      11.759999999999996      43.119999999999997      43.119999999999997
   190   1      11.759999999999996      45.079999999999998      45.079999999999998
   191   1      13.719999999999999      43.119999999999997      45.079999999999998
   192   1      13.719999999999999      45.079999999999998      43.119999999999997
   193   1      11.759999999999996      43.119999999999997      47.039999999999999
   194   1      11.759999999999996      45.079999999999998                      49
   195   1      13.719999999999999      43.119999999999997                      49
   196   1      13.719999999999999      45.079999999999998      47.039999999999999
   197   1      11.759999999999996      43.119999999999997      50.959999999999994
   198   1      11.759999999999996      45.079999999999998      52.919999999999995
   199   1      13.719999999999999      43.119999999999997      52.919999999999995
   200   1      13.719999999999999      45.079999999999998      50.959999999999994
   201   1      11.759999999999996      43.119999999999997      54.879999999999995
   202   1      13.719999999999999      43.119999999999997      56.839999999999989
   203   1      13.719999999999999      45.079999999999998      54.879999999999995
   204   1      13.719999999999999      45.079999999999998      58.799999999999997
   205   1      13.719999999999999      47.039999999999999      29.399999999999999
   206   1      11.759999999999996      47.039999999999999      31.359999999999999
   207   1      11.759999999999996                      49                   33.32
   208   1      13.719999999999999      47.039999999999999                   33.32
   209   1      13.719999999999999                      49      31.359999999999999
   210   1      11.759999999999996      47.039999999999999      35.280000000000001
   211   1      11.759999999999996                      49      37.240000000000002
   212   1      13.719999999999999      47.039999999999999      37.240000000000002
   213   1      13.719999999999999                      49      35.280000000000001
   214   1      11.759999999999996      47.039999999999999      39.199999999999996
   215   1      11.759999999999996                      49      41.159999999999997
   216   1      13.719999999999999      47.039999999999999      41.159999999999997
   217   1      13.719999999999999                      49      39.199999999999996
   218   1      11.759999999999996      47.039999999999999      43.119999999999997
   219   1      11.759999999999996                      49      45.079999999999998
   220   1      13.719999999999999      47.039999999999999      45.079999999999998
   221   1      13.719999999999999                      49      43.119999999999997
   222   1      11.759999999999996      47.039999999999999      47.039999999999999
   223   1      11.759999999999996                      49                      49
   224   1      13.719999999999999      47.039999999999999                      49
   225   1      13.719999999999999                      49      47.039999999999999
   226   1      11.759999999999996      47.039999999999999      50.959999999999994
   227   1      11.759999999999996                      49      52.919999999999995
   228   1      13.719999999999999      47.039999999999999      52.919999999999995
   229   1      13.719999999999999                      49      50.959999999999994
   230   1      11.759999999999996      47.039999999999999      54.879999999999995
   231   1      13.719999999999999      47.039999999999999      56.839999999999989
   232   1      13.719999999999999                      49      54.879999999999995
   233   1      13.719999999999999      50.959999999999994                   33.32
   234   1      11.759999999999996      50.959999999999994      35.280000000000001
   235   1      11.759999999999996      52.919999999999995      37.240000000000002
   236   1      13.719999999999999      50.959999999999994      37.240000000000002
   237   1      13.719999999999999      52.919999999999995      35.280000000000001
   238   1      11.759999999999996      50.959999999999994      39.199999999999996
   239   1      11.759999999999996      52.919999999999995      41.159999999999997
   240   1      13.719999999999999      50.959999999999994      41.159999999999997
   241   1      13.719999999999999      52.919999999999995      39.199999999999996
   242   1      11.759999999999996      50.959999999999994      43.119999999999997
   243   1      11.759999999999996      52.919999999999995      45.079999999999998
   244   1      13.719999999999999      50.959999999999994      45.079999999999998
   245   1      13.719999999999999      52.919999999999995      43.119999999999997
   246   1      11.759999999999996      50.959999999999994      47.039999999999999
   247   1      11.759999999999996      52.919999999999995                      49
   248   1      13.719999999999999      50.959999999999994                      49
   249   1      13.719999999999999      52.919999999999995      47.039999999999999
   250   1      11.759999999999996      50.959999999999994      50.959999999999994
   251   1      13.719999999999999      50.959999999999994      52.919999999999995
   252   1      13.719999999999999      52.919999999999995      50.959999999999994
   253   1      13.719999999999999      54.879999999999995      37.240000000000002
   254   1      11.759999999999996      54.879999999999995      39.199999999999996
   255   1      13.719999999999999      54.879999999999995      41.159999999999997
   256   1      13.719999999999999      56.839999999999989      39.199999999999996
   257   1      11.759999999999996      54.879999999999995      43.119999999999997
   258   1      13.719999999999999      54.879999999999995      45.079999999999998
   259   1      13.719999999999999      56.839999999999989      43.119999999999997
   260   1      11.759999999999996      54.879999999999995      47.039999999999999
   261   1      13.719999999999999      54.879999999999995                      49
   262   1      13.719999999999999      56.839999999999989      47.039999999999999
   263   1      13.719999999999999      58.799999999999997      41.159999999999997
   264   1      13.719999999999999      58.799999999999997      45.079999999999998
   265   1      17.640000000000001      21.559999999999999      43.119999999999997
   266   1                   15.68      25.479999999999997      41.159999999999997
   267   1      17.640000000000001      23.519999999999992      41.159999999999997
   268   1      17.640000000000001      25.479999999999997      39.199999999999996
   269   1                   15.68      23.519999999999992      43.119999999999997
   270   1                   15.68      25.479999999999997      45.079999999999998
   271   1      17.640000000000001      23.519999999999992      45.079999999999998
   272   1      17.640000000000001      25.479999999999997      43.119999999999997
   273   1      17.640000000000001      25.479999999999997      47.039999999999999
   274   1                   15.68      29.399999999999999      37.240000000000002
   275   1      17.640000000000001      27.439999999999998      37.240000000000002
   276   1      17.640000000000001      29.399999999999999      35.280000000000001
   277   1                   15.68      27.439999999999998      39.199999999999996
   278   1                   15.68      29.399999999999999      41.159999999999997
   279   1      17.640000000000001      27.439999999999998      41.159999999999997
   280   1      17.640000000000001      29.399999999999999      39.199999999999996
   281   1                   15.68      27.439999999999998      43.119999999999997
   282   1                   15.68      29.399999999999999      45.079999999999998
   283   1      17.640000000000001      27.439999999999998      45.079999999999998
   284   1      17.640000000000001      29.399999999999999      43.119999999999997
   285   1                   15.68      27.439999999999998      47.039999999999999
   286   1                   15.68      29.399999999999999                      49
   287   1      17.640000000000001      27.439999999999998                      49
   288   1      17.640000000000001      29.399999999999999      47.039999999999999
   289   1      17.640000000000001      29.399999999999999      50.959999999999994
   290   1                   15.68                   33.32                   33.32
   291   1      17.640000000000001      31.359999999999999                   33.32
   292   1      17.640000000000001                   33.32      31.359999999999999
   293   1                   15.68      31.359999999999999      35.280000000000001
   294   1                   15.68                   33.32      37.240000000000002
   295   1      17.640000000000001      31.359999999999999      37.240000000000002
   296   1      17.640000000000001                   33.32      35.280000000000001
   297   1                   15.68      31.359999999999999      39.199999999999996
   298   1                   15.68                   33.32      41.159999999999997
   299   1      17.640000000000001      31.359999999999999      41.159999999999997
   300   1      17.640000000000001                   33.32      39.199999999999996
   301   1                   15.68      31.359999999999999      43.119999999999997
   302   1                   15.68                   33.32      45.079999999999998
   303   1      17.640000000000001      31.359999999999999      45.079999999999998
   304   1      17.640000000000001                   33.32      43.119999999999997
   305   1                   15.68      31.359999999999999      47.039999999999999
   306   1                   15.68                   33.32                      49
   307   1      17.640000000000001      31.359999999999999                      49
   308   1      17.640000000000001                   33.32      47.039999999999999
   309   1                   15.68      31.359999999999999      50.959999999999994
   310   1                   15.68                   33.32      52.919999999999995
   311   1      17.640000000000001      31.359999999999999      52.919999999999995
   312   1      17.640000000000001                   33.32      50.959999999999994
   313   1      17.640000000000001                   33.32      54.879999999999995
   314   1                   15.68      37.240000000000002      29.399999999999999
   315   1      17.640000000000001      35.280000000000001      29.399999999999999
   316   1      17.640000000000001      37.240000000000002      27.439999999999998
   317   1                   15.68      35.280000000000001      31.359999999999999
   318   1                   15.68      37.240000000000002                   33.32
   319   1      17.640000000000001      35.280000000000001                   33.32
   320   1      17.640000000000001      37.240000000000002      31.359999999999999
   321   1                   15.68      35.280000000000001      35.280000000000001
   322   1                   15.68      37.240000000000002      37.240000000000002
   323   1      17.640000000000001      35.280000000000001      37.240000000000002
   324   1      17.640000000000001      37.240000000000002      35.280000000000001
   325   1                   15.68      35.280000000000001      39.199999999999996
   326   1                   15.68      37.240000000000002      41.159999999999997
   327   1      17.640000000000001      35.280000000000001      41.159999999999997
   328   1      17.640000000000001      37.240000000000002      39.199999999999996
   329   1                   15.68      35.280000000000001      43.119999999999997
   330   1                   15.68      37.240000000000002      45.079999999999998
   331   1      17.640000000000001      35.280000000000001      45.079999999999998
   332   1      17.640000000000001      37.240000000000002      43.119999999999997
   333   1                   15.68      35.280000000000001      47.039999999999999
   334   1                   15.68      37.240000000000002                      49
   335   1      17.640000000000001      35.280000000000001                      49
   336   1      17.640000000000001      37.240000000000002      47.039999999999999
   337   1                   15.68      35.280000000000001      50.959999999999994
   338   1                   15.68      37.240000000000002      52.919999999999995
   339   1      17.640000000000001      35.280000000000001      52.919999999999995
   340   1      17.640000000000001      37.240000000000002      50.959999999999994
   341   1                   15.68      35.280000000000001      54.879999999999995
   342   1                   15.68      37.240000000000002      56.839999999999989
   343   1      17.640000000000001      35.280000000000001      56.839999999999989
   344   1      17.640000000000001      37.240000000000002      54.879999999999995
   345   1      17.640000000000001      37.240000000000002      58.799999999999997
   346   1                   15.68      41.159999999999997      25.479999999999997
   347   1      17.640000000000001      39.199999999999996      25.479999999999997
   348   1      17.640000000000001      41.159999999999997      23.519999999999992
   349   1                   15.68      39.199999999999996      27.439999999999998
   350   1                   15.68      41.159999999999997      29.399999999999999
   351   1      17.640000000000001      39.199999999999996      29.399999999999999
   352   1      17.640000000000001      41.159999999999997      27.439999999999998
   353   1                   15.68      39.199999999999996      31.359999999999999
   354   1                   15.68      41.159999999999997                   33.32
   355   1      17.640000000000001      39.199999999999996                   33.32
   356   1      17.640000000000001      41.159999999999997      31.359999999999999
   357   1                   15.68      39.199999999999996      35.280000000000001
   358   1                   15.68      41.159999999999997      37.240000000000002