model_files/Ni/Ni_30000/Ni_542/data.Ni_542_fcc_29823 (written by ASE) 

29823 	 atoms 
1  atom types
0.0                     107  xlo xhi
0.0                     107  ylo yhi
0.0                     107  zlo zhi


Atoms 

     1   1      1.7600000000000051      51.039999999999992      52.799999999999997
     2   1      1.7600000000000051      52.799999999999997      51.039999999999992
     3   1  7.1054273576010011e-15      52.799999999999997      52.799999999999997
     4   1      1.7600000000000051      52.799999999999997      54.560000000000002
     5   1      1.7600000000000051      54.560000000000002      52.799999999999997
     6   1      3.5200000000000027      47.519999999999996      51.039999999999992
     7   1      5.2800000000000074      45.760000000000005      51.039999999999992
     8   1      5.2800000000000074      47.519999999999996      49.279999999999994
     9   1      3.5200000000000027      47.519999999999996      54.560000000000002
    10   1      5.2800000000000074      45.760000000000005      54.560000000000002
    11   1      5.2800000000000074      47.519999999999996      52.799999999999997
    12   1      5.2800000000000074      47.519999999999996                   56.32
    13   1      3.5200000000000027      51.039999999999992      47.519999999999996
    14   1      5.2800000000000074      49.279999999999994      47.519999999999996
    15   1      5.2800000000000074      51.039999999999992      45.760000000000005
    16   1      3.5200000000000027      49.279999999999994      49.279999999999994
    17   1      3.5200000000000027      51.039999999999992      51.039999999999992
    18   1      5.2800000000000074      49.279999999999994      51.039999999999992
    19   1      5.2800000000000074      51.039999999999992      49.279999999999994
    20   1      3.5200000000000027      49.279999999999994      52.799999999999997
    21   1      3.5200000000000027      51.039999999999992      54.560000000000002
    22   1      5.2800000000000074      49.279999999999994      54.560000000000002
    23   1      5.2800000000000074      51.039999999999992      52.799999999999997
    24   1      3.5200000000000027      49.279999999999994                   56.32
    25   1      3.5200000000000027      51.039999999999992      58.079999999999998
    26   1      5.2800000000000074      49.279999999999994      58.079999999999998
    27   1      5.2800000000000074      51.039999999999992                   56.32
    28   1      5.2800000000000074      51.039999999999992      59.840000000000003
    29   1      3.5200000000000027      54.560000000000002      47.519999999999996
    30   1      5.2800000000000074      52.799999999999997      47.519999999999996
    31   1      5.2800000000000074      54.560000000000002      45.760000000000005
    32   1      3.5200000000000027      52.799999999999997      49.279999999999994
    33   1      3.5200000000000027      54.560000000000002      51.039999999999992
    34   1      5.2800000000000074      52.799999999999997      51.039999999999992
    35   1      5.2800000000000074      54.560000000000002      49.279999999999994
    36   1      3.5200000000000027      52.799999999999997      52.799999999999997
    37   1      3.5200000000000027      54.560000000000002      54.560000000000002
    38   1      5.2800000000000074      52.799999999999997      54.560000000000002
    39   1      5.2800000000000074      54.560000000000002      52.799999999999997
    40   1      3.5200000000000027      52.799999999999997                   56.32
    41   1      3.5200000000000027      54.560000000000002      58.079999999999998
    42   1      5.2800000000000074      52.799999999999997      58.079999999999998
    43   1      5.2800000000000074      54.560000000000002                   56.32
    44   1      5.2800000000000074      54.560000000000002      59.840000000000003
    45   1      5.2800000000000074                   56.32      47.519999999999996
    46   1      3.5200000000000027                   56.32      49.279999999999994
    47   1      3.5200000000000027      58.079999999999998      51.039999999999992
    48   1      5.2800000000000074                   56.32      51.039999999999992
    49   1      5.2800000000000074      58.079999999999998      49.279999999999994
    50   1      3.5200000000000027                   56.32      52.799999999999997
    51   1      3.5200000000000027      58.079999999999998      54.560000000000002
    52   1      5.2800000000000074                   56.32      54.560000000000002
    53   1      5.2800000000000074      58.079999999999998      52.799999999999997
    54   1      3.5200000000000027                   56.32                   56.32
    55   1      5.2800000000000074                   56.32      58.079999999999998
    56   1      5.2800000000000074      58.079999999999998                   56.32
    57   1      5.2800000000000074      59.840000000000003      51.039999999999992
    58   1      5.2800000000000074      59.840000000000003      54.560000000000002
    59   1      8.8000000000000025      40.479999999999997      52.799999999999997
    60   1      8.8000000000000025                      44      45.760000000000005
    61   1      7.0400000000000054                      44      51.039999999999992
    62   1      8.8000000000000025      42.240000000000002      51.039999999999992
    63   1      8.8000000000000025                      44      49.279999999999994
    64   1      7.0400000000000054      42.240000000000002      52.799999999999997
    65   1      7.0400000000000054                      44      54.560000000000002
    66   1      8.8000000000000025      42.240000000000002      54.560000000000002
    67   1      8.8000000000000025                      44      52.799999999999997
    68   1      8.8000000000000025                      44                   56.32
    69   1      8.8000000000000025                      44      59.840000000000003
    70   1      8.8000000000000025      45.760000000000005                      44
    71   1      7.0400000000000054      45.760000000000005      45.760000000000005
    72   1      7.0400000000000054      47.519999999999996      47.519999999999996
    73   1      8.8000000000000025      45.760000000000005      47.519999999999996
    74   1      8.8000000000000025      47.519999999999996      45.760000000000005
    75   1      7.0400000000000054      45.760000000000005      49.279999999999994
    76   1      7.0400000000000054      47.519999999999996      51.039999999999992
    77   1      8.8000000000000025      45.760000000000005      51.039999999999992
    78   1      8.8000000000000025      47.519999999999996      49.279999999999994
    79   1      7.0400000000000054      45.760000000000005      52.799999999999997
    80   1      7.0400000000000054      47.519999999999996      54.560000000000002
    81   1      8.8000000000000025      45.760000000000005      54.560000000000002
    82   1      8.8000000000000025      47.519999999999996      52.799999999999997
    83   1      7.0400000000000054      45.760000000000005                   56.32
    84   1      7.0400000000000054      47.519999999999996      58.079999999999998
    85   1      8.8000000000000025      45.760000000000005      58.079999999999998
    86   1      8.8000000000000025      47.519999999999996                   56.32
    87   1      7.0400000000000054      45.760000000000005      59.840000000000003
    88   1      8.8000000000000025      45.760000000000005      61.600000000000001
    89   1      8.8000000000000025      47.519999999999996      59.840000000000003
    90   1      7.0400000000000054      51.039999999999992                      44
    91   1      8.8000000000000025      49.279999999999994                      44
    92   1      8.8000000000000025      51.039999999999992      42.240000000000002
    93   1      7.0400000000000054      49.279999999999994      45.760000000000005
    94   1      7.0400000000000054      51.039999999999992      47.519999999999996
    95   1      8.8000000000000025      49.279999999999994      47.519999999999996
    96   1      8.8000000000000025      51.039999999999992      45.760000000000005
    97   1      7.0400000000000054      49.279999999999994      49.279999999999994
    98   1      7.0400000000000054      51.039999999999992      51.039999999999992
    99   1      8.8000000000000025      49.279999999999994      51.039999999999992
   100   1      8.8000000000000025      51.039999999999992      49.279999999999994
   101   1      7.0400000000000054      49.279999999999994      52.799999999999997
   102   1      7.0400000000000054      51.039999999999992      54.560000000000002
   103   1      8.8000000000000025      49.279999999999994      54.560000000000002
   104   1      8.8000000000000025      51.039999999999992      52.799999999999997
   105   1      7.0400000000000054      49.279999999999994                   56.32
   106   1      7.0400000000000054      51.039999999999992      58.079999999999998
   107   1      8.8000000000000025      49.279999999999994      58.079999999999998
   108   1      8.8000000000000025      51.039999999999992                   56.32
   109   1      7.0400000000000054      49.279999999999994      59.840000000000003
   110   1      7.0400000000000054      51.039999999999992      61.600000000000001
   111   1      8.8000000000000025      49.279999999999994      61.600000000000001
   112   1      8.8000000000000025      51.039999999999992      59.840000000000003
   113   1      8.8000000000000025      51.039999999999992      63.359999999999999
   114   1      8.8000000000000025      52.799999999999997      40.479999999999997
   115   1      7.0400000000000054      52.799999999999997      42.240000000000002
   116   1      7.0400000000000054      54.560000000000002                      44
   117   1      8.8000000000000025      52.799999999999997                      44
   118   1      8.8000000000000025      54.560000000000002      42.240000000000002
   119   1      7.0400000000000054      52.799999999999997      45.760000000000005
   120   1      7.0400000000000054      54.560000000000002      47.519999999999996
   121   1      8.8000000000000025      52.799999999999997      47.519999999999996
   122   1      8.8000000000000025      54.560000000000002      45.760000000000005
   123   1      7.0400000000000054      52.799999999999997      49.279999999999994
   124   1      7.0400000000000054      54.560000000000002      51.039999999999992
   125   1      8.8000000000000025      52.799999999999997      51.039999999999992
   126   1      8.8000000000000025      54.560000000000002      49.279999999999994
   127   1      7.0400000000000054      52.799999999999997      52.799999999999997
   128   1      7.0400000000000054      54.560000000000002      54.560000000000002
   129   1      8.8000000000000025      52.799999999999997      54.560000000000002
   130   1      8.8000000000000025      54.560000000000002      52.799999999999997
   131   1      7.0400000000000054      52.799999999999997                   56.32
   132   1      7.0400000000000054      54.560000000000002      58.079999999999998
   133   1      8.8000000000000025      52.799999999999997      58.079999999999998
   134   1      8.8000000000000025      54.560000000000002                   56.32
   135   1      7.0400000000000054      52.799999999999997      59.840000000000003
   136   1      7.0400000000000054      54.560000000000002      61.600000000000001
   137   1      8.8000000000000025      52.799999999999997      61.600000000000001
   138   1      8.8000000000000025      54.560000000000002      59.840000000000003
   139   1      7.0400000000000054      52.799999999999997      63.359999999999999
   140   1      8.8000000000000025      52.799999999999997       65.11999999999999
   141   1      8.8000000000000025      54.560000000000002      63.359999999999999
   142   1      8.8000000000000025                   56.32                      44
   143   1      7.0400000000000054                   56.32      45.760000000000005
   144   1      7.0400000000000054      58.079999999999998      47.519999999999996
   145   1      8.8000000000000025                   56.32      47.519999999999996
   146   1      8.8000000000000025      58.079999999999998      45.760000000000005
   147   1      7.0400000000000054                   56.32      49.279999999999994
   148   1      7.0400000000000054      58.079999999999998      51.039999999999992
   149   1      8.8000000000000025                   56.32      51.039999999999992
   150   1      8.8000000000000025      58.079999999999998      49.279999999999994
   151   1      7.0400000000000054                   56.32      52.799999999999997
   152   1      7.0400000000000054      58.079999999999998      54.560000000000002
   153   1      8.8000000000000025                   56.32      54.560000000000002
   154   1      8.8000000000000025      58.079999999999998      52.799999999999997
   155   1      7.0400000000000054                   56.32                   56.32
   156   1      7.0400000000000054      58.079999999999998      58.079999999999998
   157   1      8.8000000000000025                   56.32      58.079999999999998
   158   1      8.8000000000000025      58.079999999999998                   56.32
   159   1      7.0400000000000054                   56.32      59.840000000000003
   160   1      8.8000000000000025                   56.32      61.600000000000001
   161   1      8.8000000000000025      58.079999999999998      59.840000000000003
   162   1      8.8000000000000025      59.840000000000003                      44
   163   1      7.0400000000000054      59.840000000000003      45.760000000000005
   164   1      8.8000000000000025      59.840000000000003      47.519999999999996
   165   1      8.8000000000000025      61.600000000000001      45.760000000000005
   166   1      7.0400000000000054      59.840000000000003      49.279999999999994
   167   1      7.0400000000000054      61.600000000000001      51.039999999999992
   168   1      8.8000000000000025      59.840000000000003      51.039999999999992
   169   1      8.8000000000000025      61.600000000000001      49.279999999999994
   170   1      7.0400000000000054      59.840000000000003      52.799999999999997
   171   1      7.0400000000000054      61.600000000000001      54.560000000000002
   172   1      8.8000000000000025      59.840000000000003      54.560000000000002
   173   1      8.8000000000000025      61.600000000000001      52.799999999999997
   174   1      7.0400000000000054      59.840000000000003                   56.32
   175   1      8.8000000000000025      59.840000000000003      58.079999999999998
   176   1      8.8000000000000025      61.600000000000001                   56.32
   177   1      7.0400000000000054      59.840000000000003      59.840000000000003
   178   1      8.8000000000000025      59.840000000000003      61.600000000000001
   179   1      8.8000000000000025      61.600000000000001      59.840000000000003
   180   1      8.8000000000000025      63.359999999999999      51.039999999999992
   181   1      7.0400000000000054      63.359999999999999      52.799999999999997
   182   1      8.8000000000000025      63.359999999999999      54.560000000000002
   183   1      8.8000000000000025       65.11999999999999      52.799999999999997
   184   1      12.319999999999999      36.960000000000001      52.799999999999997
   185   1      10.560000000000002      40.479999999999997      47.519999999999996
   186   1      12.319999999999999      38.719999999999999      47.519999999999996
   187   1      12.319999999999999      40.479999999999997      45.760000000000005
   188   1      10.560000000000002      40.479999999999997      51.039999999999992
   189   1      12.319999999999999      38.719999999999999      51.039999999999992
   190   1      12.319999999999999      40.479999999999997      49.279999999999994
   191   1      10.560000000000002      38.719999999999999      52.799999999999997
   192   1      10.560000000000002      40.479999999999997      54.560000000000002
   193   1      12.319999999999999      38.719999999999999      54.560000000000002
   194   1      12.319999999999999      40.479999999999997      52.799999999999997
   195   1      10.560000000000002      40.479999999999997      58.079999999999998
   196   1      12.319999999999999      38.719999999999999      58.079999999999998
   197   1      12.319999999999999      40.479999999999997                   56.32
   198   1      12.319999999999999      40.479999999999997      59.840000000000003
   199   1      10.560000000000002                      44                      44
   200   1      12.319999999999999      42.240000000000002                      44
   201   1      12.319999999999999                      44      42.240000000000002
   202   1      10.560000000000002      42.240000000000002      45.760000000000005
   203   1      10.560000000000002                      44      47.519999999999996
   204   1      12.319999999999999      42.240000000000002      47.519999999999996
   205   1      12.319999999999999                      44      45.760000000000005
   206   1      10.560000000000002      42.240000000000002      49.279999999999994
   207   1      10.560000000000002                      44      51.039999999999992
   208   1      12.319999999999999      42.240000000000002      51.039999999999992
   209   1      12.319999999999999                      44      49.279999999999994
   210   1      10.560000000000002      42.240000000000002      52.799999999999997
   211   1      10.560000000000002                      44      54.560000000000002
   212   1      12.319999999999999      42.240000000000002      54.560000000000002
   213   1      12.319999999999999                      44      52.799999999999997
   214   1      10.560000000000002      42.240000000000002                   56.32
   215   1      10.560000000000002                      44      58.079999999999998
   216   1      12.319999999999999      42.240000000000002      58.079999999999998
   217   1      12.319999999999999                      44                   56.32
   218   1      10.560000000000002      42.240000000000002      59.840000000000003
   219   1      10.560000000000002                      44      61.600000000000001
   220   1      12.319999999999999      42.240000000000002      61.600000000000001
   221   1      12.319999999999999                      44      59.840000000000003
   222   1      12.319999999999999                      44      63.359999999999999
   223   1      10.560000000000002      47.519999999999996      40.479999999999997
   224   1      12.319999999999999      45.760000000000005      40.479999999999997
   225   1      12.319999999999999      47.519999999999996      38.719999999999999
   226   1      10.560000000000002      45.760000000000005      42.240000000000002
   227   1      10.560000000000002      47.519999999999996                      44
   228   1      12.319999999999999      45.760000000000005                      44
   229   1      12.319999999999999      47.519999999999996      42.240000000000002
   230   1      10.560000000000002      45.760000000000005      45.760000000000005
   231   1      10.560000000000002      47.519999999999996      47.519999999999996
   232   1      12.319999999999999      45.760000000000005      47.519999999999996
   233   1      12.319999999999999      47.519999999999996      45.760000000000005
   234   1      10.560000000000002      45.760000000000005      49.279999999999994
   235   1      10.560000000000002      47.519999999999996      51.039999999999992
   236   1      12.319999999999999      45.760000000000005      51.039999999999992
   237   1      12.319999999999999      47.519999999999996      49.279999999999994
   238   1      10.560000000000002      45.760000000000005      52.799999999999997
   239   1      10.560000000000002      47.519999999999996      54.560000000000002
   240   1      12.319999999999999      45.760000000000005      54.560000000000002
   241   1      12.319999999999999      47.519999999999996      52.799999999999997
   242   1      10.560000000000002      45.760000000000005                   56.32
   243   1      10.560000000000002      47.519999999999996      58.079999999999998
   244   1      12.319999999999999      45.760000000000005      58.079999999999998
   245   1      12.319999999999999      47.519999999999996                   56.32
   246   1      10.560000000000002      45.760000000000005      59.840000000000003
   247   1      10.560000000000002      47.519999999999996      61.600000000000001
   248   1      12.319999999999999      45.760000000000005      61.600000000000001
   249   1      12.319999999999999      47.519999999999996      59.840000000000003
   250   1      10.560000000000002      45.760000000000005      63.359999999999999
   251   1      10.560000000000002      47.519999999999996       65.11999999999999
   252   1      12.319999999999999      45.760000000000005       65.11999999999999
   253   1      12.319999999999999      47.519999999999996      63.359999999999999
   254   1      12.319999999999999      47.519999999999996       66.88000000000001
   255   1      10.560000000000002      51.039999999999992      40.479999999999997
   256   1      12.319999999999999      49.279999999999994      40.479999999999997
   257   1      12.319999999999999      51.039999999999992      38.719999999999999
   258   1      10.560000000000002      49.279999999999994      42.240000000000002
   259   1      10.560000000000002      51.039999999999992                      44
   260   1      12.319999999999999      49.279999999999994                      44
   261   1      12.319999999999999      51.039999999999992      42.240000000000002
   262   1      10.560000000000002      49.279999999999994      45.760000000000005
   263   1      10.560000000000002      51.039999999999992      47.519999999999996
   264   1      12.319999999999999      49.279999999999994      47.519999999999996
   265   1      12.319999999999999      51.039999999999992      45.760000000000005
   266   1      10.560000000000002      49.279999999999994      49.279999999999994
   267   1      10.560000000000002      51.039999999999992      51.039999999999992
   268   1      12.319999999999999      49.279999999999994      51.039999999999992
   269   1      12.319999999999999      51.039999999999992      49.279999999999994
   270   1      10.560000000000002      49.279999999999994      52.799999999999997
   271   1      10.560000000000002      51.039999999999992      54.560000000000002
   272   1      12.319999999999999      49.279999999999994      54.560000000000002
   273   1      12.319999999999999      51.039999999999992      52.799999999999997
   274   1      10.560000000000002      49.279999999999994                   56.32
   275   1      10.560000000000002      51.039999999999992      58.079999999999998
   276   1      12.319999999999999      49.279999999999994      58.079999999999998
   277   1      12.319999999999999      51.039999999999992                   56.32
   278   1      10.560000000000002      49.279999999999994      59.840000000000003
   279   1      10.560000000000002      51.039999999999992      61.600000000000001
   280   1      12.319999999999999      49.279999999999994      61.600000000000001
   281   1      12.319999999999999      51.039999999999992      59.840000000000003
   282   1      10.560000000000002      49.279999999999994      63.359999999999999
   283   1      10.560000000000002      51.039999999999992       65.11999999999999
   284   1      12.319999999999999      49.279999999999994       65.11999999999999
   285   1      12.319999999999999      51.039999999999992      63.359999999999999
   286   1      12.319999999999999      51.039999999999992       66.88000000000001
   287   1      12.319999999999999      52.799999999999997      36.960000000000001
   288   1      10.560000000000002      52.799999999999997      38.719999999999999
   289   1      10.560000000000002      54.560000000000002      40.479999999999997
   290   1      12.319999999999999      52.799999999999997      40.479999999999997
   291   1      12.319999999999999      54.560000000000002      38.719999999999999
   292   1      10.560000000000002      52.799999999999997      42.240000000000002
   293   1      10.560000000000002      54.560000000000002                      44
   294   1      12.319999999999999      52.799999999999997                      44
   295   1      12.319999999999999      54.560000000000002      42.240000000000002
   296   1      10.560000000000002      52.799999999999997      45.760000000000005
   297   1      10.560000000000002      54.560000000000002      47.519999999999996
   298   1      12.319999999999999      52.799999999999997      47.519999999999996
   299   1      12.319999999999999      54.560000000000002      45.760000000000005
   300   1      10.560000000000002      52.799999999999997      49.279999999999994
   301   1      10.560000000000002      54.560000000000002      51.039999999999992
   302   1      12.319999999999999      52.799999999999997      51.039999999999992
   303   1      12.319999999999999      54.560000000000002      49.279999999999994
   304   1      10.560000000000002      52.799999999999997      52.799999999999997
   305   1      10.560000000000002      54.560000000000002      54.560000000000002
   306   1      12.319999999999999      52.799999999999997      54.560000000000002
   307   1      12.319999999999999      54.560000000000002      52.799999999999997
   308   1      10.560000000000002      52.799999999999997                   56.32
   309   1      10.560000000000002      54.560000000000002      58.079999999999998
   310   1      12.319999999999999      52.799999999999997      58.079999999999998
   311   1      12.319999999999999      54.560000000000002                   56.32
   312   1      10.560000000000002      52.799999999999997      59.840000000000003
   313   1      10.560000000000002      54.560000000000002      61.600000000000001
   314   1      12.319999999999999      52.799999999999997      61.600000000000001
   315   1      12.319999999999999      54.560000000000002      59.840000000000003
   316   1      10.560000000000002      52.799999999999997      63.359999999999999
   317   1      10.560000000000002      54.560000000000002       65.11999999999999
   318   1      12.319999999999999      52.799999999999997       65.11999999999999
   319   1      12.319999999999999      54.560000000000002      63.359999999999999
   320   1      10.560000000000002      52.799999999999997       66.88000000000001
   321   1      12.319999999999999      52.799999999999997      68.640000000000015
   322   1      12.319999999999999      54.560000000000002       66.88000000000001
   323   1      10.560000000000002      58.079999999999998      40.479999999999997
   324   1      12.319999999999999                   56.32      40.479999999999997
   325   1      12.319999999999999      58.079999999999998      38.719999999999999
   326   1      10.560000000000002                   56.32      42.240000000000002
   327   1      10.560000000000002      58.079999999999998                      44
   328   1      12.319999999999999                   56.32                      44
   329   1      12.319999999999999      58.079999999999998      42.240000000000002
   330   1      10.560000000000002                   56.32      45.760000000000005
   331   1      10.560000000000002      58.079999999999998      47.519999999999996
   332   1      12.319999999999999                   56.32      47.519999999999996
   333   1      12.319999999999999      58.079999999999998      45.760000000000005
   334   1      10.560000000000002                   56.32      49.279999999999994
   335   1      10.560000000000002      58.079999999999998      51.039999999999992
   336   1      12.319999999999999                   56.32      51.039999999999992
   337   1      12.319999999999999      58.079999999999998      49.279999999999994
   338   1      10.560000000000002                   56.32      52.799999999999997
   339   1      10.560000000000002      58.079999999999998      54.560000000000002
   340   1      12.319999999999999                   56.32      54.560000000000002
   341   1      12.319999999999999      58.079999999999998      52.799999999999997
   342   1      10.560000000000002                   56.32                   56.32
   343   1      10.560000000000002      58.079999999999998      58.079999999999998
   344   1      12.319999999999999                   56.32      58.079999999999998
   345   1      12.319999999999999      58.079999999999998                   56.32
   346   1      10.560000000000002                   56.32      59.840000000000003
   347   1      10.560000000000002      58.079999999999998      61.600000000000001
   348   1      12.319999999999999                   56.32      61.600000000000001
   349   1      12.319999999999999      58.079999999999998      59.840000000000003
   350   1      10.560000000000002                   56.32      63.359999999999999
   351   1      10.560000000000002      58.079999999999998       65.11999999999999
   352   1      12.319999999999999                   56.32       65.11999999999999
   353   1      12.319999999999999      58.079999999999998      63.359999999999999
   354   1      12.319999999999999      58.079999999999998       66.88000000000001
   355   1      12.319999999999999      59.840000000000003      40.479999999999997
   356   1      10.560000000000002      59.840000000000003      42.240000000000002
   357   1      10.560000000000002      61.600000000000001                      44
   358   1      12.319999999999999      59.840000000000003                      44