LAMMPS Description

     30000  atoms
     3  atom types

  0.0 315 xlo xhi
  0.0 315 ylo yhi
  10.0 15 zlo zhi

Masses

1 183.85  # W
2 32.066  # S
3 78.84   #Se

Atoms  # atomic

1 1    0.0          0.0    12.6       
2 2    1.84333326   0.0    11.03203237 
3 2    1.84333326   0.0    14.16796763 
4 1    3.15         0.0    12.6       
5 2    4.99333326   0.0    11.03203237 
6 2    4.99333326   0.0    14.16796763 
7 1    6.3          0.0    12.6       
8 2    8.14333326   0.0    11.03203237 
9 2    8.14333326   0.0    14.16796763 
10 1    9.45         0.0    12.6       
11 2    11.29333326  0.0    11.03203237 
12 2    11.29333326  0.0    14.16796763 
13 1    12.6         0.0    12.6       
14 2    14.44333326  0.0    11.03203237 
15 2    14.44333326  0.0    14.16796763 
16 1    15.75        0.0    12.6       
17 2    17.59333326  0.0    11.03203237 
18 2    17.59333326  0.0    14.16796763 
19 1    18.9         0.0    12.6       
20 2    20.74333326  0.0    11.03203237 
21 2    20.74333326  0.0    14.16796763 
22 1    22.05        0.0    12.6       
23 2    23.89333326  0.0    11.03203237 
24 2    23.89333326  0.0    14.16796763 
25 1    25.2         0.0    12.6       
26 2    27.04333326  0.0    11.03203237 
27 2    27.04333326  0.0    14.16796763 
28 1    28.35        0.0    12.6       
29 2    30.19333326  0.0    11.03203237 
30 2    30.19333326  0.0    14.16796763 
31 1    31.5         0.0    12.6       
32 2    33.34333326  0.0    11.03203237 
33 2    33.34333326  0.0    14.16796763 
34 1    34.65        0.0    12.6       
35 2    36.49333326  0.0    11.03203237 
36 2    36.49333326  0.0    14.16796763 
37 1    37.8         0.0    12.6       
38 2    39.64333326  0.0    11.03203237 
39 2    39.64333326  0.0    14.16796763 
40 1    40.95        0.0    12.6       
41 2    42.79333326  0.0    11.03203237 
42 2    42.79333326  0.0    14.16796763 
43 1    44.1         0.0    12.6       
44 2    45.94333326  0.0    11.03203237 
45 2    45.94333326  0.0    14.16796763 
46 1    47.25        0.0    12.6       
47 2    49.09333326  0.0    11.03203237 
48 2    49.09333326  0.0    14.16796763 
49 1    50.4         0.0    12.6       
50 2    52.24333326  0.0    11.03203237 
51 2    52.24333326  0.0    14.16796763 
52 1    53.55        0.0    12.6       
53 2    55.39333326  0.0    11.03203237 
54 2    55.39333326  0.0    14.16796763 
55 1    56.7         0.0    12.6       
56 2    58.54333326  0.0    11.03203237 
57 2    58.54333326  0.0    14.16796763 
58 1    59.85        0.0    12.6       
59 2    61.69333326  0.0    11.03203237 
60 2    61.69333326  0.0    14.16796763 
61 1    63.0         0.0    12.6       
62 2    64.84333326  0.0    11.03203237 
63 2    64.84333326  0.0    14.16796763 
64 1    66.15        0.0    12.6       
65 2    67.99333326  0.0    11.03203237 
66 2    67.99333326  0.0    14.16796763 
67 1    69.3         0.0    12.6       
68 2    71.14333326  0.0    11.03203237 
69 2    71.14333326  0.0    14.16796763 
70 1    72.45        0.0    12.6       
71 2    74.29333326  0.0    11.03203237 
72 2    74.29333326  0.0    14.16796763 
73 1    75.6         0.0    12.6       
74 2    77.44333326  0.0    11.03203237 
75 2    77.44333326  0.0    14.16796763 
76 1    78.75        0.0    12.6       
77 2    80.59333326  0.0    11.03203237 
78 2    80.59333326  0.0    14.16796763 
79 1    81.9         0.0    12.6       
80 2    83.74333326  0.0    11.03203237 
81 2    83.74333326  0.0    14.16796763 
82 1    85.05        0.0    12.6       
83 2    86.89333326  0.0    11.03203237 
84 2    86.89333326  0.0    14.16796763 
85 1    88.2         0.0    12.6       
86 2    90.04333326  0.0    11.03203237 
87 2    90.04333326  0.0    14.16796763 
88 1    91.35        0.0    12.6       
89 2    93.19333326  0.0    11.03203237 
90 2    93.19333326  0.0    14.16796763 
91 1    94.5         0.0    12.6       
92 2    96.34333326  0.0    11.03203237 
93 2    96.34333326  0.0    14.16796763 
94 1    97.65        0.0    12.6       
95 2    99.49333326  0.0    11.03203237 
96 2    99.49333326  0.0    14.16796763 
97 1    100.8        0.0    12.6       
98 2    102.64333326 0.0    11.03203237 
99 2    102.64333326 0.0    14.16796763 
100 1    103.95       0.0    12.6       
101 2    105.79333326 0.0    11.03203237 
102 2    105.79333326 0.0    14.16796763 
103 1    107.1        0.0    12.6       
104 2    108.94333326 0.0    11.03203237 
105 2    108.94333326 0.0    14.16796763 
106 1    110.25       0.0    12.6       
107 2    112.09333326 0.0    11.03203237 
108 2    112.09333326 0.0    14.16796763 
109 1    113.4        0.0    12.6       
110 2    115.24333326 0.0    11.03203237 
111 2    115.24333326 0.0    14.16796763 
112 1    116.55       0.0    12.6       
113 2    118.39333326 0.0    11.03203237 
114 2    118.39333326 0.0    14.16796763 
115 1    119.7        0.0    12.6       
116 2    121.54333326 0.0    11.03203237 
117 2    121.54333326 0.0    14.16796763 
118 1    122.85       0.0    12.6       
119 2    124.69333326 0.0    11.03203237 
120 2    124.69333326 0.0    14.16796763 
121 1    126.0        0.0    12.6       
122 2    127.84333326 0.0    11.03203237 
123 2    127.84333326 0.0    14.16796763 
124 1    129.15       0.0    12.6       
125 2    130.99333326 0.0    11.03203237 
126 2    130.99333326 0.0    14.16796763 
127 1    132.3        0.0    12.6       
128 2    134.14333326 0.0    11.03203237 
129 2    134.14333326 0.0    14.16796763 
130 1    135.45       0.0    12.6       
131 2    137.29333326 0.0    11.03203237 
132 2    137.29333326 0.0    14.16796763 
133 1    138.6        0.0    12.6       
134 2    140.44333326 0.0    11.03203237 
135 2    140.44333326 0.0    14.16796763 
136 1    141.75       0.0    12.6       
137 2    143.59333326 0.0    11.03203237 
138 2    143.59333326 0.0    14.16796763 
139 1    144.9        0.0    12.6       
140 2    146.74333326 0.0    11.03203237 
141 2    146.74333326 0.0    14.16796763 
142 1    148.05       0.0    12.6       
143 2    149.89333326 0.0    11.03203237 
144 2    149.89333326 0.0    14.16796763 
145 1    151.2        0.0    12.6       
146 2    153.04333326 0.0    11.03203237 
147 2    153.04333326 0.0    14.16796763 
148 1    154.35       0.0    12.6       
149 2    156.19333326 0.0    11.03203237 
150 2    156.19333326 0.0    14.16796763 
151 1    157.5        0.0    12.6       
152 2    159.34333326 0.0    11.03203237 
153 2    159.34333326 0.0    14.16796763 
154 1    160.65       0.0    12.6       
155 2    162.49333326 0.0    11.03203237 
156 2    162.49333326 0.0    14.16796763 
157 1    163.8        0.0    12.6       
158 2    165.64333326 0.0    11.03203237 
159 2    165.64333326 0.0    14.16796763 
160 1    166.95       0.0    12.6       
161 2    168.79333326 0.0    11.03203237 
162 2    168.79333326 0.0    14.16796763 
163 1    170.1        0.0    12.6       
164 2    171.94333326 0.0    11.03203237 
165 2    171.94333326 0.0    14.16796763 
166 1    173.25       0.0    12.6       
167 2    175.09333326 0.0    11.03203237 
168 2    175.09333326 0.0    14.16796763 
169 1    176.4        0.0    12.6       
170 2    178.24333326 0.0    11.03203237 
171 2    178.24333326 0.0    14.16796763 
172 1    179.55       0.0    12.6       
173 2    181.39333326 0.0    11.03203237 
174 2    181.39333326 0.0    14.16796763 
175 1    182.7        0.0    12.6       
176 2    184.54333326 0.0    11.03203237 
177 2    184.54333326 0.0    14.16796763 
178 1    185.85       0.0    12.6       
179 2    187.69333326 0.0    11.03203237 
180 2    187.69333326 0.0    14.16796763 
181 1    189.0        0.0    12.6       
182 2    190.84333326 0.0    11.03203237 
183 2    190.84333326 0.0    14.16796763 
184 1    192.15       0.0    12.6       
185 2    193.99333326 0.0    11.03203237 
186 2    193.99333326 0.0    14.16796763 
187 1    195.3        0.0    12.6       
188 2    197.14333326 0.0    11.03203237 
189 2    197.14333326 0.0    14.16796763 
190 1    198.45       0.0    12.6       
191 2    200.29333326 0.0    11.03203237 
192 2    200.29333326 0.0    14.16796763 
193 1    201.6        0.0    12.6       
194 2    203.44333326 0.0    11.03203237 
195 2    203.44333326 0.0    14.16796763 
196 1    204.75       0.0    12.6       
197 2    206.59333326 0.0    11.03203237 
198 2    206.59333326 0.0    14.16796763 
199 1    207.9        0.0    12.6       
200 2    209.74333326 0.0    11.03203237 
201 2    209.74333326 0.0    14.16796763 
202 1    211.05       0.0    12.6       
203 2    212.89333326 0.0    11.03203237 
204 2    212.89333326 0.0    14.16796763 
205 1    214.2        0.0    12.6       
206 2    216.04333326 0.0    11.03203237 
207 2    216.04333326 0.0    14.16796763 
208 1    217.35       0.0    12.6       
209 2    219.19333326 0.0    11.03203237 
210 2    219.19333326 0.0    14.16796763 
211 1    220.5        0.0    12.6       
212 2    222.34333326 0.0    11.03203237 
213 2    222.34333326 0.0    14.16796763 
214 1    223.65       0.0    12.6       
215 2    225.49333326 0.0    11.03203237 
216 2    225.49333326 0.0    14.16796763 
217 1    226.8        0.0    12.6       
218 2    228.64333326 0.0    11.03203237 
219 2    228.64333326 0.0    14.16796763 
220 1    229.95       0.0    12.6       
221 2    231.79333326 0.0    11.03203237 
222 2    231.79333326 0.0    14.16796763 
223 1    233.1        0.0    12.6       
224 2    234.94333326 0.0    11.03203237 
225 2    234.94333326 0.0    14.16796763 
226 1    236.25       0.0    12.6       
227 2    238.09333326 0.0    11.03203237 
228 2    238.09333326 0.0    14.16796763 
229 1    239.4        0.0    12.6       
230 2    241.24333326 0.0    11.03203237 
231 2    241.24333326 0.0    14.16796763 
232 1    242.55       0.0    12.6       
233 2    244.39333326 0.0    11.03203237 
234 2    244.39333326 0.0    14.16796763 
235 1    245.7        0.0    12.6       
236 2    247.54333326 0.0    11.03203237 
237 2    247.54333326 0.0    14.16796763 
238 1    248.85       0.0    12.6       
239 2    250.69333326 0.0    11.03203237 
240 2    250.69333326 0.0    14.16796763 
241 1    252.0        0.0    12.6       
242 2    253.84333326 0.0    11.03203237 
243 2    253.84333326 0.0    14.16796763 
244 1    255.15       0.0    12.6       
245 2    256.99333326 0.0    11.03203237 
246 2    256.99333326 0.0    14.16796763 
247 1    258.3        0.0    12.6       
248 2    260.14333326 0.0    11.03203237 
249 2    260.14333326 0.0    14.16796763 
250 1    261.45       0.0    12.6       
251 2    263.29333326 0.0    11.03203237 
252 2    263.29333326 0.0    14.16796763 
253 1    264.6        0.0    12.6       
254 2    266.44333326 0.0    11.03203237 
255 2    266.44333326 0.0    14.16796763 
256 1    267.75       0.0    12.6       
257 2    269.59333326 0.0    11.03203237 
258 2    269.59333326 0.0    14.16796763 
259 1    270.9        0.0    12.6       
260 2    272.74333326 0.0    11.03203237 
261 2    272.74333326 0.0    14.16796763 
262 1    274.05       0.0    12.6       
263 2    275.89333326 0.0    11.03203237 
264 2    275.89333326 0.0    14.16796763 
265 1    277.2        0.0    12.6       
266 2    279.04333326 0.0    11.03203237 
267 2    279.04333326 0.0    14.16796763 
268 1    280.35       0.0    12.6       
269 2    282.19333326 0.0    11.03203237 
270 2    282.19333326 0.0    14.16796763 
271 1    283.5        0.0    12.6       
272 2    285.34333326 0.0    11.03203237 
273 2    285.34333326 0.0    14.16796763 
274 1    286.65       0.0    12.6       
275 2    288.49333326 0.0    11.03203237 
276 2    288.49333326 0.0    14.16796763 
277 1    289.8        0.0    12.6       
278 2    291.64333326 0.0    11.03203237 
279 2    291.64333326 0.0    14.16796763 
280 1    292.95       0.0    12.6       
281 2    294.79333326 0.0    11.03203237 
282 2    294.79333326 0.0    14.16796763 
283 1    296.1        0.0    12.6       
284 2    297.94333326 0.0    11.03203237 
285 2    297.94333326 0.0    14.16796763 
286 1    299.25       0.0    12.6       
287 2    301.09333326 0.0    11.03203237 
288 2    301.09333326 0.0    14.16796763 
289 1    302.4        0.0    12.6       
290 2    304.24333326 0.0    11.03203237 
291 2    304.24333326 0.0    14.16796763 
292 1    305.55       0.0    12.6       
293 2    307.39333326 0.0    11.03203237 
294 2    307.39333326 0.0    14.16796763 
295 1    308.7        0.0    12.6       
296 2    310.54333326 0.0    11.03203237 
297 2    310.54333326 0.0    14.16796763 
298 1    311.85       0.0    12.6       
299 2    313.69333326 0.0    11.03203237 
300 2    313.69333326 0.0    14.16796763 
301 1    0.0          3.15   12.6       
302 2    1.84333326   3.15   11.03203237 
303 2    1.84333326   3.15   14.16796763 
304 1    3.15         3.15   12.6       
305 2    4.99333326   3.15   11.03203237 
306 2    4.99333326   3.15   14.16796763 
307 1    6.3          3.15   12.6       
308 2    8.14333326   3.15   11.03203237 
309 2    8.14333326   3.15   14.16796763 
310 1    9.45         3.15   12.6       
311 2    11.29333326  3.15   11.03203237 
312 2    11.29333326  3.15   14.16796763 
313 1    12.6         3.15   12.6       
314 2    14.44333326  3.15   11.03203237 
315 2    14.44333326  3.15   14.16796763 
316 1    15.75        3.15   12.6       
317 2    17.59333326  3.15   11.03203237 
318 2    17.59333326  3.15   14.16796763 
319 1    18.9         3.15   12.6       
320 2    20.74333326  3.15   11.03203237 
321 2    20.74333326  3.15   14.16796763 
322 1    22.05        3.15   12.6       
323 2    23.89333326  3.15   11.03203237 
324 2    23.89333326  3.15   14.16796763 
325 1    25.2         3.15   12.6       
326 2    27.04333326  3.15   11.03203237 
327 2    27.04333326  3.15   14.16796763 
328 1    28.35        3.15   12.6       
329 2    30.19333326  3.15   11.03203237 
330 2    30.19333326  3.15   14.16796763 
331 1    31.5         3.15   12.6       
332 2    33.34333326  3.15   11.03203237 
333 2    33.34333326  3.15   14.16796763 
334 1    34.65        3.15   12.6       
335 2    36.49333326  3.15   11.03203237 
336 2    36.49333326  3.15   14.16796763 
337 1    37.8         3.15   12.6       
338 2    39.64333326  3.15   11.03203237 
339 2    39.64333326  3.15   14.16796763 
340 1    40.95        3.15   12.6       
341 2    42.79333326  3.15   11.03203237 
342 2    42.79333326  3.15   14.16796763 
343 1    44.1         3.15   12.6       
344 2    45.94333326  3.15   11.03203237 
345 2    45.94333326  3.15   14.16796763 
346 1    47.25        3.15   12.6       
347 2    49.09333326  3.15   11.03203237 
348 2    49.09333326  3.15   14.16796763 
349 1    50.4         3.15   12.6       
350 2    52.24333326  3.15   11.03203237 
351 2    52.24333326  3.15   14.16796763 
352 1    53.55        3.15   12.6       
353 2    55.39333326  3.15   11.03203237 
354 2    55.39333326  3.15   14.16796763 
355 1    56.7         3.15   12.6       
356 2    58.54333326  3.15   11.03203237 
357 2    58.54333326  3.15   14.16796763 
358 1    59.85        3.15   12.6       
359 2    61.69333326  3.15   11.03203237 
360 2    61.69333326  3.15   14.16796763 
361 1    63.0         3.15   12.6       
362 2    64.84333326  3.15   11.03203237 
363 2    64.84333326  3.15   14.16796763 
364 1    66.15        3.15   12.6       
365 2    67.99333326  3.15   11.03203237 
366 2    67.99333326  3.15   14.16796763 
367 1    69.3         3.15   12.6       
368 2    71.14333326  3.15   11.03203237 
369 2    71.14333326  3.15   14.16796763 
370 1    72.45        3.15   12.6       
371 2    74.29333326  3.15   11.03203237 
372 2    74.29333326  3.15   14.16796763 
373 1    75.6         3.15   12.6       
374 2    77.44333326  3.15   11.03203237 
375 2    77.44333326  3.15   14.16796763 
376 1    78.75        3.15   12.6       
377 2    80.59333326  3.15   11.03203237 
378 2    80.59333326  3.15   14.16796763 
379 1    81.9         3.15   12.6       
380 2    83.74333326  3.15   11.03203237 
381 2    83.74333326  3.15   14.16796763 
382 1    85.05        3.15   12.6       
383 2    86.89333326  3.15   11.03203237 
384 2    86.89333326  3.15   14.16796763 
385 1    88.2         3.15   12.6       
386 2    90.04333326  3.15   11.03203237 
387 2    90.04333326  3.15   14.16796763 
388 1    91.35        3.15   12.6       
389 2    93.19333326  3.15   11.03203237 
390 2    93.19333326  3.15   14.16796763 
391 1    94.5         3.15   12.6       
392 2    96.34333326  3.15   11.03203237 
393 2    96.34333326  3.15   14.16796763 
394 1    97.65        3.15   12.6       
395 2    99.49333326  3.15   11.03203237 
396 2    99.49333326  3.15   14.16796763 
397 1    100.8        3.15   12.6       
398 2    102.64333326 3.15   11.03203237 
399 2    102.64333326 3.15   14.16796763 
400 1    103.95       3.15   12.6       
401 2    105.79333326 3.15   11.03203237 
402 2    105.79333326 3.15   14.16796763 
403 1    107.1        3.15   12.6       
404 2    108.94333326 3.15   11.03203237 
405 2    108.94333326 3.15   14.16796763 
406 1    110.25       3.15   12.6       
407 2    112.09333326 3.15   11.03203237 
408 2    112.09333326 3.15   14.16796763 
409 1    113.4        3.15   12.6       
410 2    115.24333326 3.15   11.03203237 
411 2    115.24333326 3.15   14.16796763 
412 1    116.55       3.15   12.6       
413 2    118.39333326 3.15   11.03203237 
414 2    118.39333326 3.15   14.16796763 
415 1    119.7        3.15   12.6       
416 2    121.54333326 3.15   11.03203237 
417 2    121.54333326 3.15   14.16796763 
418 1    122.85       3.15   12.6       
419 2    124.69333326 3.15   11.03203237 
420 2    124.69333326 3.15   14.16796763 
421 1    126.0        3.15   12.6       
422 2    127.84333326 3.15   11.03203237 
423 2    127.84333326 3.15   14.16796763 
424 1    129.15       3.15   12.6       
425 2    130.99333326 3.15   11.03203237 
426 2    130.99333326 3.15   14.16796763 
427 1    132.3        3.15   12.6       
428 2    134.14333326 3.15   11.03203237 
429 2    134.14333326 3.15   14.16796763 
430 1    135.45       3.15   12.6       
431 2    137.29333326 3.15   11.03203237 
432 2    137.29333326 3.15   14.16796763 
433 1    138.6        3.15   12.6       
434 2    140.44333326 3.15   11.03203237 
435 2    140.44333326 3.15   14.16796763 
436 1    141.75       3.15   12.6       
437 2    143.59333326 3.15   11.03203237 
438 2    143.59333326 3.15   14.16796763 
439 1    144.9        3.15   12.6       
440 2    146.74333326 3.15   11.03203237 
441 2    146.74333326 3.15   14.16796763 
442 1    148.05       3.15   12.6       
443 2    149.89333326 3.15   11.03203237 
444 2    149.89333326 3.15   14.16796763 
445 1    151.2        3.15   12.6       
446 2    153.04333326 3.15   11.03203237 
447 2    153.04333326 3.15   14.16796763 
448 1    154.35       3.15   12.6       
449 2    156.19333326 3.15   11.03203237 
450 2    156.19333326 3.15   14.16796763 
451 1    157.5        3.15   12.6       
452 2    159.34333326 3.15   11.03203237 
453 2    159.34333326 3.15   14.16796763 
454 1    160.65       3.15   12.6       
455 2    162.49333326 3.15   11.03203237 
456 2    162.49333326 3.15   14.16796763 
457 1    163.8        3.15   12.6       
458 2    165.64333326 3.15   11.03203237 
459 2    165.64333326 3.15   14.16796763 
460 1    166.95       3.15   12.6       
461 2    168.79333326 3.15   11.03203237 
462 2    168.79333326 3.15   14.16796763 
463 1    170.1        3.15   12.6       
464 2    171.94333326 3.15   11.03203237 
465 2    171.94333326 3.15   14.16796763 
466 1    173.25       3.15   12.6       
467 2    175.09333326 3.15   11.03203237 
468 2    175.09333326 3.15   14.16796763 
469 1    176.4        3.15   12.6       
470 2    178.24333326 3.15   11.03203237 
471 2    178.24333326 3.15   14.16796763 
472 1    179.55       3.15   12.6       
473 2    181.39333326 3.15   11.03203237 
474 2    181.39333326 3.15   14.16796763 
475 1    182.7        3.15   12.6       
476 2    184.54333326 3.15   11.03203237 
477 2    184.54333326 3.15   14.16796763 
478 1    185.85       3.15   12.6       
479 2    187.69333326 3.15   11.03203237 
480 2    187.69333326 3.15   14.16796763 
481 1    189.0        3.15   12.6       
482 2    190.84333326 3.15   11.03203237 
483 2    190.84333326 3.15   14.16796763 
484 1    192.15       3.15   12.6       
485 2    193.99333326 3.15   11.03203237 
486 2    193.99333326 3.15   14.16796763 
487 1    195.3        3.15   12.6       
488 2    197.14333326 3.15   11.03203237 
489 2    197.14333326 3.15   14.16796763 
490 1    198.45       3.15   12.6       
491 2    200.29333326 3.15   11.03203237 
492 2    200.29333326 3.15   14.16796763 
493 1    201.6        3.15   12.6       
494 2    203.44333326 3.15   11.03203237 
495 2    203.44333326 3.15   14.16796763 
496 1    204.75       3.15   12.6       
497 2    206.59333326 3.15   11.03203237 
498 2    206.59333326 3.15   14.16796763 
499 1    207.9        3.15   12.6       
500 2    209.74333326 3.15   11.03203237 
501 2    209.74333326 3.15   14.16796763 
502 1    211.05       3.15   12.6       
503 2    212.89333326 3.15   11.03203237 
504 2    212.89333326 3.15   14.16796763 
505 1    214.2        3.15   12.6       
506 2    216.04333326 3.15   11.03203237 
507 2    216.04333326 3.15   14.16796763 
508 1    217.35       3.15   12.6       
509 2    219.19333326 3.15   11.03203237 
510 2    219.19333326 3.15   14.16796763 
511 1    220.5        3.15   12.6       
512 2    222.34333326 3.15   11.03203237 
513 2    222.34333326 3.15   14.16796763 
514 1    223.65       3.15   12.6       
515 2    225.49333326 3.15   11.03203237 
516 2    225.49333326 3.15   14.16796763 
517 1    226.8        3.15   12.6       
518 2    228.64333326 3.15   11.03203237 
519 2    228.64333326 3.15   14.16796763 
520 1    229.95       3.15   12.6       
521 2    231.79333326 3.15   11.03203237 
522 2    231.79333326 3.15   14.16796763 
523 1    233.1        3.15   12.6       
524 2    234.94333326 3.15   11.03203237 
525 2    234.94333326 3.15   14.16796763 
526 1    236.25       3.15   12.6       
527 2    238.09333326 3.15   11.03203237 
528 2    238.09333326 3.15   14.16796763 
529 1    239.4        3.15   12.6       
530 2    241.24333326 3.15   11.03203237 
531 2    241.24333326 3.15   14.16796763 
532 1    242.55       3.15   12.6       
533 2    244.39333326 3.15   11.03203237 
534 2    244.39333326 3.15   14.16796763 
535 1    245.7        3.15   12.6       
536 2    247.54333326 3.15   11.03203237 
537 2    247.54333326 3.15   14.16796763 
538 1    248.85       3.15   12.6       
539 2    250.69333326 3.15   11.03203237 
540 2    250.69333326 3.15   14.16796763 
541 1    252.0        3.15   12.6       
542 2    253.84333326 3.15   11.03203237 
543 2    253.84333326 3.15   14.16796763 
544 1    255.15       3.15   12.6       
545 2    256.99333326 3.15   11.03203237 
546 2    256.99333326 3.15   14.16796763 
547 1    258.3        3.15   12.6       
548 2    260.14333326 3.15   11.03203237 
549 2    260.14333326 3.15   14.16796763 
550 1    261.45       3.15   12.6       
551 2    263.29333326 3.15   11.03203237 
552 2    263.29333326 3.15   14.16796763 
553 1    264.6        3.15   12.6       
554 2    266.44333326 3.15   11.03203237 
555 2    266.44333326 3.15   14.16796763 
556 1    267.75       3.15   12.6       
557 2    269.59333326 3.15   11.03203237 
558 2    269.59333326 3.15   14.16796763 
559 1    270.9        3.15   12.6       
560 2    272.74333326 3.15   11.03203237 
561 2    272.74333326 3.15   14.16796763 
562 1    274.05       3.15   12.6       
563 2    275.89333326 3.15   11.03203237 
564 2    275.89333326 3.15   14.16796763 
565 1    277.2        3.15   12.6       
566 2    279.04333326 3.15   11.03203237 
567 2    279.04333326 3.15   14.16796763 
568 1    280.35       3.15   12.6       
569 2    282.19333326 3.15   11.03203237 
570 2    282.19333326 3.15   14.16796763 
571 1    283.5        3.15   12.6       
572 2    285.34333326 3.15   11.03203237 
573 2    285.34333326 3.15   14.16796763 
574 1    286.65       3.15   12.6       
575 2    288.49333326 3.15   11.03203237 
576 2    288.49333326 3.15   14.16796763 
577 1    289.8        3.15   12.6       
578 2    291.64333326 3.15   11.03203237 
579 2    291.64333326 3.15   14.16796763 
580 1    292.95       3.15   12.6       
581 2    294.79333326 3.15   11.03203237 
582 2    294.79333326 3.15   14.16796763 
583 1    296.1        3.15   12.6       
584 2    297.94333326 3.15   11.03203237 
585 2    297.94333326 3.15   14.16796763 
586 1    299.25       3.15   12.6       
587 2    301.09333326 3.15   11.03203237 
588 2    301.09333326 3.15   14.16796763 
589 1    302.4        3.15   12.6       
590 2    304.24333326 3.15   11.03203237 
591 2    304.24333326 3.15   14.16796763 
592 1    305.55       3.15   12.6       
593 2    307.39333326 3.15   11.03203237 
594 2    307.39333326 3.15   14.16796763 
595 1    308.7        3.15   12.6       
596 2    310.54333326 3.15   11.03203237 
597 2    310.54333326 3.15   14.16796763 
598 1    311.85       3.15   12.6       
599 2    313.69333326 3.15   11.03203237 
600 2    313.69333326 3.15   14.16796763 
601 1    0.0          6.3    12.6       
602 2    1.84333326   6.3    11.03203237 
603 2    1.84333326   6.3    14.16796763 
604 1    3.15         6.3    12.6       
605 2    4.99333326   6.3    11.03203237 
606 2    4.99333326   6.3    14.16796763 
607 1    6.3          6.3    12.6       
608 2    8.14333326   6.3    11.03203237 
609 2    8.14333326   6.3    14.16796763 
610 1    9.45         6.3    12.6       
611 2    11.29333326  6.3    11.03203237 
612 2    11.29333326  6.3    14.16796763 
613 1    12.6         6.3    12.6       
614 2    14.44333326  6.3    11.03203237 
615 2    14.44333326  6.3    14.16796763 
616 1    15.75        6.3    12.6       
617 2    17.59333326  6.3    11.03203237 
618 2    17.59333326  6.3    14.16796763 
619 1    18.9         6.3    12.6       
620 2    20.74333326  6.3    11.03203237 
621 2    20.74333326  6.3    14.16796763 
622 1    22.05        6.3    12.6       
623 2    23.89333326  6.3    11.03203237 
624 2    23.89333326  6.3    14.16796763 
625 1    25.2         6.3    12.6       
626 2    27.04333326  6.3    11.03203237 
627 2    27.04333326  6.3    14.16796763 
628 1    28.35        6.3    12.6       
629 2    30.19333326  6.3    11.03203237 
630 2    30.19333326  6.3    14.16796763 
631 1    31.5         6.3    12.6       
632 2    33.34333326  6.3    11.03203237 
633 2    33.34333326  6.3    14.16796763 
634 1    34.65        6.3    12.6       
635 2    36.49333326  6.3    11.03203237 
636 2    36.49333326  6.3    14.16796763 
637 1    37.8         6.3    12.6       
638 2    39.64333326  6.3    11.03203237 
639 2    39.64333326  6.3    14.16796763 
640 1    40.95        6.3    12.6       
641 2    42.79333326  6.3    11.03203237 
642 2    42.79333326  6.3    14.16796763 
643 1    44.1         6.3    12.6       
644 2    45.94333326  6.3    11.03203237 
645 2    45.94333326  6.3    14.16796763 
646 1    47.25        6.3    12.6       
647 2    49.09333326  6.3    11.03203237 
648 2    49.09333326  6.3    14.16796763 
649 1    50.4         6.3    12.6       
650 2    52.24333326  6.3    11.03203237 
651 2    52.24333326  6.3    14.16796763 
652 1    53.55        6.3    12.6       
653 2    55.39333326  6.3    11.03203237 
654 2    55.39333326  6.3    14.16796763 
655 1    56.7         6.3    12.6       
656 2    58.54333326  6.3    11.03203237 
657 2    58.54333326  6.3    14.16796763 
658 1    59.85        6.3    12.6       
659 2    61.69333326  6.3    11.03203237 
660 2    61.69333326  6.3    14.16796763 
661 1    63.0         6.3    12.6       
662 2    64.84333326  6.3    11.03203237 
663 2    64.84333326  6.3    14.16796763 
664 1    66.15        6.3    12.6       
665 2    67.99333326  6.3    11.03203237 
666 2    67.99333326  6.3    14.16796763 
667 1    69.3         6.3    12.6       
668 2    71.14333326  6.3    11.03203237 
669 2    71.14333326  6.3    14.16796763 
670 1    72.45        6.3    12.6       
671 2    74.29333326  6.3    11.03203237 
672 2    74.29333326  6.3    14.16796763 
673 1    75.6         6.3    12.6       
674 2    77.44333326  6.3    11.03203237 
675 2    77.44333326  6.3    14.16796763 
676 1    78.75        6.3    12.6       
677 2    80.59333326  6.3    11.03203237 
678 2    80.59333326  6.3    14.16796763 
679 1    81.9         6.3    12.6       
680 2    83.74333326  6.3    11.03203237 
681 2    83.74333326  6.3    14.16796763 
682 1    85.05        6.3    12.6       
683 2    86.89333326  6.3    11.03203237 
684 2    86.89333326  6.3    14.16796763 
685 1    88.2         6.3    12.6       
686 2    90.04333326  6.3    11.03203237 
687 2    90.04333326  6.3    14.16796763 
688 1    91.35        6.3    12.6       
689 2    93.19333326  6.3    11.03203237 
690 2    93.19333326  6.3    14.16796763 
691 1    94.5         6.3    12.6       
692 2    96.34333326  6.3    11.03203237 
693 2    96.34333326  6.3    14.16796763 
694 1    97.65        6.3    12.6       
695 2    99.49333326  6.3    11.03203237 
696 2    99.49333326  6.3    14.16796763 
697 1    100.8        6.3    12.6       
698 2    102.64333326 6.3    11.03203237 
699 2    102.64333326 6.3    14.16796763 
700 1    103.95       6.3    12.6       
701 2    105.79333326 6.3    11.03203237 
702 2    105.79333326 6.3    14.16796763 
703 1    107.1        6.3    12.6       
704 2    108.94333326 6.3    11.03203237 
705 2    108.94333326 6.3    14.16796763 
706 1    110.25       6.3    12.6       
707 2    112.09333326 6.3    11.03203237 
708 2    112.09333326 6.3    14.16796763 
709 1    113.4        6.3    12.6       
710 2    115.24333326 6.3    11.03203237 
711 2    115.24333326 6.3    14.16796763 
712 1    116.55       6.3    12.6       
713 2    118.39333326 6.3    11.03203237 
714 2    118.39333326 6.3    14.16796763 
715 1    119.7        6.3    12.6       
716 2    121.54333326 6.3    11.03203237 
717 2    121.54333326 6.3    14.16796763 
718 1    122.85       6.3    12.6       