model_files/NiFeCrCoAl/NiFeCrCoAl_30000/NiFeCrCoAl_311/NiFeCrCoAl_311_fcc_30453_temp.data (written by ASE) 

30453 	 atoms 
5  atom types
0.0                      90  xlo xhi
0.0                      90  ylo yhi
0.0                      90  zlo zhi


Atoms 

     1   1  7.1054273576010019e-15      43.320000000000007      45.125000000000007
     2   1  7.1054273576010019e-15      45.125000000000007      43.320000000000007
     3   1  7.1054273576010019e-15      45.125000000000007      46.930000000000007
     4   1  7.1054273576010019e-15      46.930000000000007      45.125000000000007
     5   1       3.610000000000007      32.490000000000009      45.125000000000007
     6   1       3.610000000000007      34.295000000000009      43.320000000000007
     7   1       3.610000000000007      36.100000000000009      41.515000000000008
     8   1       3.610000000000007      34.295000000000009      46.930000000000007
     9   1       3.610000000000007      36.100000000000009      45.125000000000007
    10   1       3.610000000000007      36.100000000000009      48.735000000000007
    11   1       3.610000000000007      37.905000000000015      39.710000000000008
    12   1       3.610000000000007      39.710000000000008      37.905000000000015
    13   1      1.8050000000000068      39.710000000000008      43.320000000000007
    14   1       3.610000000000007      37.905000000000015      43.320000000000007
    15   1       3.610000000000007      39.710000000000008      41.515000000000008
    16   1      1.8050000000000068      37.905000000000015      45.125000000000007
    17   1      1.8050000000000068      39.710000000000008      46.930000000000007
    18   1       3.610000000000007      37.905000000000015      46.930000000000007
    19   1       3.610000000000007      39.710000000000008      45.125000000000007
    20   1       3.610000000000007      37.905000000000015      50.540000000000013
    21   1       3.610000000000007      39.710000000000008      48.735000000000007
    22   1       3.610000000000007      39.710000000000008      52.345000000000006
    23   1       3.610000000000007      41.515000000000008      36.100000000000009
    24   1       3.610000000000007      43.320000000000007      34.295000000000009
    25   1      1.8050000000000068      43.320000000000007      39.710000000000008
    26   1       3.610000000000007      41.515000000000008      39.710000000000008
    27   1       3.610000000000007      43.320000000000007      37.905000000000015
    28   1      1.8050000000000068      41.515000000000008      41.515000000000008
    29   1      1.8050000000000068      43.320000000000007      43.320000000000007
    30   1       3.610000000000007      41.515000000000008      43.320000000000007
    31   1       3.610000000000007      43.320000000000007      41.515000000000008
    32   1      1.8050000000000068      41.515000000000008      45.125000000000007
    33   1      1.8050000000000068      43.320000000000007      46.930000000000007
    34   1       3.610000000000007      41.515000000000008      46.930000000000007
    35   1       3.610000000000007      43.320000000000007      45.125000000000007
    36   1      1.8050000000000068      41.515000000000008      48.735000000000007
    37   1      1.8050000000000068      43.320000000000007      50.540000000000013
    38   1       3.610000000000007      41.515000000000008      50.540000000000013
    39   1       3.610000000000007      43.320000000000007      48.735000000000007
    40   1       3.610000000000007      41.515000000000008      54.150000000000013
    41   1       3.610000000000007      43.320000000000007      52.345000000000006
    42   1       3.610000000000007      43.320000000000007      55.955000000000005
    43   1       3.610000000000007      45.125000000000007      32.490000000000009
    44   1       3.610000000000007      45.125000000000007      36.100000000000009
    45   1       3.610000000000007      46.930000000000007      34.295000000000009
    46   1      1.8050000000000068      45.125000000000007      37.905000000000015
    47   1      1.8050000000000068      46.930000000000007      39.710000000000008
    48   1       3.610000000000007      45.125000000000007      39.710000000000008
    49   1       3.610000000000007      46.930000000000007      37.905000000000015
    50   1      1.8050000000000068      45.125000000000007      41.515000000000008
    51   1      1.8050000000000068      46.930000000000007      43.320000000000007
    52   1       3.610000000000007      45.125000000000007      43.320000000000007
    53   1       3.610000000000007      46.930000000000007      41.515000000000008
    54   1      1.8050000000000068      45.125000000000007      45.125000000000007
    55   1      1.8050000000000068      46.930000000000007      46.930000000000007
    56   1       3.610000000000007      45.125000000000007      46.930000000000007
    57   1       3.610000000000007      46.930000000000007      45.125000000000007
    58   1      1.8050000000000068      45.125000000000007      48.735000000000007
    59   1      1.8050000000000068      46.930000000000007      50.540000000000013
    60   1       3.610000000000007      45.125000000000007      50.540000000000013
    61   1       3.610000000000007      46.930000000000007      48.735000000000007
    62   1      1.8050000000000068      45.125000000000007      52.345000000000006
    63   1       3.610000000000007      45.125000000000007      54.150000000000013
    64   1       3.610000000000007      46.930000000000007      52.345000000000006
    65   1       3.610000000000007      45.125000000000007      57.760000000000012
    66   1       3.610000000000007      46.930000000000007      55.955000000000005
    67   1       3.610000000000007      48.735000000000007      36.100000000000009
    68   1       3.610000000000007      48.735000000000007      39.710000000000008
    69   1       3.610000000000007      50.540000000000013      37.905000000000015
    70   1      1.8050000000000068      48.735000000000007      41.515000000000008
    71   1      1.8050000000000068      50.540000000000013      43.320000000000007
    72   1       3.610000000000007      48.735000000000007      43.320000000000007
    73   1       3.610000000000007      50.540000000000013      41.515000000000008
    74   1      1.8050000000000068      48.735000000000007      45.125000000000007
    75   1      1.8050000000000068      50.540000000000013      46.930000000000007
    76   1       3.610000000000007      48.735000000000007      46.930000000000007
    77   1       3.610000000000007      50.540000000000013      45.125000000000007
    78   1      1.8050000000000068      48.735000000000007      48.735000000000007
    79   1       3.610000000000007      48.735000000000007      50.540000000000013
    80   1       3.610000000000007      50.540000000000013      48.735000000000007
    81   1       3.610000000000007      48.735000000000007      54.150000000000013
    82   1       3.610000000000007      50.540000000000013      52.345000000000006
    83   1       3.610000000000007      52.345000000000006      39.710000000000008
    84   1       3.610000000000007      52.345000000000006      43.320000000000007
    85   1       3.610000000000007      54.150000000000013      41.515000000000008
    86   1      1.8050000000000068      52.345000000000006      45.125000000000007
    87   1       3.610000000000007      52.345000000000006      46.930000000000007
    88   1       3.610000000000007      54.150000000000013      45.125000000000007
    89   1       3.610000000000007      52.345000000000006      50.540000000000013
    90   1       3.610000000000007      54.150000000000013      48.735000000000007
    91   1       3.610000000000007      55.955000000000005      43.320000000000007
    92   1       3.610000000000007      55.955000000000005      46.930000000000007
    93   1       3.610000000000007      57.760000000000012      45.125000000000007
    94   1       7.220000000000006      21.660000000000007      45.125000000000007
    95   1       7.220000000000006      23.465000000000007      43.320000000000007
    96   1       7.220000000000006      25.270000000000007      41.515000000000008
    97   1       7.220000000000006      23.465000000000007      46.930000000000007
    98   1       7.220000000000006      25.270000000000007      45.125000000000007
    99   1       7.220000000000006      25.270000000000007      48.735000000000007
   100   1       7.220000000000006      27.075000000000006      39.710000000000008
   101   1       7.220000000000006      28.880000000000006      37.905000000000015
   102   1      5.4150000000000063      28.880000000000006      43.320000000000007
   103   1       7.220000000000006      27.075000000000006      43.320000000000007
   104   1       7.220000000000006      28.880000000000006      41.515000000000008
   105   1      5.4150000000000063      27.075000000000006      45.125000000000007
   106   1      5.4150000000000063      28.880000000000006      46.930000000000007
   107   1       7.220000000000006      27.075000000000006      46.930000000000007
   108   1       7.220000000000006      28.880000000000006      45.125000000000007
   109   1       7.220000000000006      27.075000000000006      50.540000000000013
   110   1       7.220000000000006      28.880000000000006      48.735000000000007
   111   1       7.220000000000006      28.880000000000006      52.345000000000006
   112   1       7.220000000000006      30.685000000000009      36.100000000000009
   113   1       7.220000000000006      32.490000000000009      34.295000000000009
   114   1      5.4150000000000063      32.490000000000009      39.710000000000008
   115   1       7.220000000000006      30.685000000000009      39.710000000000008
   116   1       7.220000000000006      32.490000000000009      37.905000000000015
   117   1      5.4150000000000063      30.685000000000009      41.515000000000008
   118   1      5.4150000000000063      32.490000000000009      43.320000000000007
   119   1       7.220000000000006      30.685000000000009      43.320000000000007
   120   1       7.220000000000006      32.490000000000009      41.515000000000008
   121   1      5.4150000000000063      30.685000000000009      45.125000000000007
   122   1      5.4150000000000063      32.490000000000009      46.930000000000007
   123   1       7.220000000000006      30.685000000000009      46.930000000000007
   124   1       7.220000000000006      32.490000000000009      45.125000000000007
   125   1      5.4150000000000063      30.685000000000009      48.735000000000007
   126   1      5.4150000000000063      32.490000000000009      50.540000000000013
   127   1       7.220000000000006      30.685000000000009      50.540000000000013
   128   1       7.220000000000006      32.490000000000009      48.735000000000007
   129   1       7.220000000000006      30.685000000000009      54.150000000000013
   130   1       7.220000000000006      32.490000000000009      52.345000000000006
   131   1       7.220000000000006      32.490000000000009      55.955000000000005
   132   1       7.220000000000006      34.295000000000009      32.490000000000009
   133   1       7.220000000000006      36.100000000000009      30.685000000000009
   134   1      5.4150000000000063      36.100000000000009      36.100000000000009
   135   1       7.220000000000006      34.295000000000009      36.100000000000009
   136   1       7.220000000000006      36.100000000000009      34.295000000000009
   137   1      5.4150000000000063      34.295000000000009      37.905000000000015
   138   1      5.4150000000000063      36.100000000000009      39.710000000000008
   139   1       7.220000000000006      34.295000000000009      39.710000000000008
   140   1       7.220000000000006      36.100000000000009      37.905000000000015
   141   1      5.4150000000000063      34.295000000000009      41.515000000000008
   142   1      5.4150000000000063      36.100000000000009      43.320000000000007
   143   1       7.220000000000006      34.295000000000009      43.320000000000007
   144   1       7.220000000000006      36.100000000000009      41.515000000000008
   145   1      5.4150000000000063      34.295000000000009      45.125000000000007
   146   1      5.4150000000000063      36.100000000000009      46.930000000000007
   147   1       7.220000000000006      34.295000000000009      46.930000000000007
   148   1       7.220000000000006      36.100000000000009      45.125000000000007
   149   1      5.4150000000000063      34.295000000000009      48.735000000000007
   150   1      5.4150000000000063      36.100000000000009      50.540000000000013
   151   1       7.220000000000006      34.295000000000009      50.540000000000013
   152   1       7.220000000000006      36.100000000000009      48.735000000000007
   153   1      5.4150000000000063      34.295000000000009      52.345000000000006
   154   1      5.4150000000000063      36.100000000000009      54.150000000000013
   155   1       7.220000000000006      34.295000000000009      54.150000000000013
   156   1       7.220000000000006      36.100000000000009      52.345000000000006
   157   1       7.220000000000006      34.295000000000009      57.760000000000012
   158   1       7.220000000000006      36.100000000000009      55.955000000000005
   159   1       7.220000000000006      36.100000000000009      59.565000000000005
   160   1       7.220000000000006      37.905000000000015      28.880000000000006
   161   1       7.220000000000006      39.710000000000008      27.075000000000006
   162   1      5.4150000000000063      39.710000000000008      32.490000000000009
   163   1       7.220000000000006      37.905000000000015      32.490000000000009
   164   1       7.220000000000006      39.710000000000008      30.685000000000009
   165   1      5.4150000000000063      37.905000000000015      34.295000000000009
   166   1      5.4150000000000063      39.710000000000008      36.100000000000009
   167   1       7.220000000000006      37.905000000000015      36.100000000000009
   168   1       7.220000000000006      39.710000000000008      34.295000000000009
   169   1      5.4150000000000063      37.905000000000015      37.905000000000015
   170   1      5.4150000000000063      39.710000000000008      39.710000000000008
   171   1       7.220000000000006      37.905000000000015      39.710000000000008
   172   1       7.220000000000006      39.710000000000008      37.905000000000015
   173   1      5.4150000000000063      37.905000000000015      41.515000000000008
   174   1      5.4150000000000063      39.710000000000008      43.320000000000007
   175   1       7.220000000000006      37.905000000000015      43.320000000000007
   176   1       7.220000000000006      39.710000000000008      41.515000000000008
   177   1      5.4150000000000063      37.905000000000015      45.125000000000007
   178   1      5.4150000000000063      39.710000000000008      46.930000000000007
   179   1       7.220000000000006      37.905000000000015      46.930000000000007
   180   1       7.220000000000006      39.710000000000008      45.125000000000007
   181   1      5.4150000000000063      37.905000000000015      48.735000000000007
   182   1      5.4150000000000063      39.710000000000008      50.540000000000013
   183   1       7.220000000000006      37.905000000000015      50.540000000000013
   184   1       7.220000000000006      39.710000000000008      48.735000000000007
   185   1      5.4150000000000063      37.905000000000015      52.345000000000006
   186   1      5.4150000000000063      39.710000000000008      54.150000000000013
   187   1       7.220000000000006      37.905000000000015      54.150000000000013
   188   1       7.220000000000006      39.710000000000008      52.345000000000006
   189   1      5.4150000000000063      37.905000000000015      55.955000000000005
   190   1      5.4150000000000063      39.710000000000008      57.760000000000012
   191   1       7.220000000000006      37.905000000000015      57.760000000000012
   192   1       7.220000000000006      39.710000000000008      55.955000000000005
   193   1       7.220000000000006      37.905000000000015      61.370000000000012
   194   1       7.220000000000006      39.710000000000008      59.565000000000005
   195   1       7.220000000000006      39.710000000000008      63.175000000000011
   196   1       7.220000000000006      41.515000000000008      25.270000000000007
   197   1       7.220000000000006      43.320000000000007      23.465000000000007
   198   1      5.4150000000000063      43.320000000000007      28.880000000000006
   199   1       7.220000000000006      41.515000000000008      28.880000000000006
   200   1       7.220000000000006      43.320000000000007      27.075000000000006
   201   1      5.4150000000000063      41.515000000000008      30.685000000000009
   202   1      5.4150000000000063      43.320000000000007      32.490000000000009
   203   1       7.220000000000006      41.515000000000008      32.490000000000009
   204   1       7.220000000000006      43.320000000000007      30.685000000000009
   205   1      5.4150000000000063      41.515000000000008      34.295000000000009
   206   1      5.4150000000000063      43.320000000000007      36.100000000000009
   207   1       7.220000000000006      41.515000000000008      36.100000000000009
   208   1       7.220000000000006      43.320000000000007      34.295000000000009
   209   1      5.4150000000000063      41.515000000000008      37.905000000000015
   210   1      5.4150000000000063      43.320000000000007      39.710000000000008
   211   1       7.220000000000006      41.515000000000008      39.710000000000008
   212   1       7.220000000000006      43.320000000000007      37.905000000000015
   213   1      5.4150000000000063      41.515000000000008      41.515000000000008
   214   1      5.4150000000000063      43.320000000000007      43.320000000000007
   215   1       7.220000000000006      41.515000000000008      43.320000000000007
   216   1       7.220000000000006      43.320000000000007      41.515000000000008
   217   1      5.4150000000000063      41.515000000000008      45.125000000000007
   218   1      5.4150000000000063      43.320000000000007      46.930000000000007
   219   1       7.220000000000006      41.515000000000008      46.930000000000007
   220   1       7.220000000000006      43.320000000000007      45.125000000000007
   221   1      5.4150000000000063      41.515000000000008      48.735000000000007
   222   1      5.4150000000000063      43.320000000000007      50.540000000000013
   223   1       7.220000000000006      41.515000000000008      50.540000000000013
   224   1       7.220000000000006      43.320000000000007      48.735000000000007
   225   1      5.4150000000000063      41.515000000000008      52.345000000000006
   226   1      5.4150000000000063      43.320000000000007      54.150000000000013
   227   1       7.220000000000006      41.515000000000008      54.150000000000013
   228   1       7.220000000000006      43.320000000000007      52.345000000000006
   229   1      5.4150000000000063      41.515000000000008      55.955000000000005
   230   1      5.4150000000000063      43.320000000000007      57.760000000000012
   231   1       7.220000000000006      41.515000000000008      57.760000000000012
   232   1       7.220000000000006      43.320000000000007      55.955000000000005
   233   1      5.4150000000000063      41.515000000000008      59.565000000000005
   234   1      5.4150000000000063      43.320000000000007      61.370000000000012
   235   1       7.220000000000006      41.515000000000008      61.370000000000012
   236   1       7.220000000000006      43.320000000000007      59.565000000000005
   237   1       7.220000000000006      41.515000000000008      64.980000000000018
   238   1       7.220000000000006      43.320000000000007      63.175000000000011
   239   1       7.220000000000006      43.320000000000007      66.785000000000011
   240   1       7.220000000000006      45.125000000000007      21.660000000000007
   241   1       7.220000000000006      45.125000000000007      25.270000000000007
   242   1       7.220000000000006      46.930000000000007      23.465000000000007
   243   1      5.4150000000000063      45.125000000000007      27.075000000000006
   244   1      5.4150000000000063      46.930000000000007      28.880000000000006
   245   1       7.220000000000006      45.125000000000007      28.880000000000006
   246   1       7.220000000000006      46.930000000000007      27.075000000000006
   247   1      5.4150000000000063      45.125000000000007      30.685000000000009
   248   1      5.4150000000000063      46.930000000000007      32.490000000000009
   249   1       7.220000000000006      45.125000000000007      32.490000000000009
   250   1       7.220000000000006      46.930000000000007      30.685000000000009
   251   1      5.4150000000000063      45.125000000000007      34.295000000000009
   252   1      5.4150000000000063      46.930000000000007      36.100000000000009
   253   1       7.220000000000006      45.125000000000007      36.100000000000009
   254   1       7.220000000000006      46.930000000000007      34.295000000000009
   255   1      5.4150000000000063      45.125000000000007      37.905000000000015
   256   1      5.4150000000000063      46.930000000000007      39.710000000000008
   257   1       7.220000000000006      45.125000000000007      39.710000000000008
   258   1       7.220000000000006      46.930000000000007      37.905000000000015
   259   1      5.4150000000000063      45.125000000000007      41.515000000000008
   260   1      5.4150000000000063      46.930000000000007      43.320000000000007
   261   1       7.220000000000006      45.125000000000007      43.320000000000007
   262   1       7.220000000000006      46.930000000000007      41.515000000000008
   263   1      5.4150000000000063      45.125000000000007      45.125000000000007
   264   1      5.4150000000000063      46.930000000000007      46.930000000000007
   265   1       7.220000000000006      45.125000000000007      46.930000000000007
   266   1       7.220000000000006      46.930000000000007      45.125000000000007
   267   1      5.4150000000000063      45.125000000000007      48.735000000000007
   268   1      5.4150000000000063      46.930000000000007      50.540000000000013
   269   1       7.220000000000006      45.125000000000007      50.540000000000013
   270   1       7.220000000000006      46.930000000000007      48.735000000000007
   271   1      5.4150000000000063      45.125000000000007      52.345000000000006
   272   1      5.4150000000000063      46.930000000000007      54.150000000000013
   273   1       7.220000000000006      45.125000000000007      54.150000000000013
   274   1       7.220000000000006      46.930000000000007      52.345000000000006
   275   1      5.4150000000000063      45.125000000000007      55.955000000000005
   276   1      5.4150000000000063      46.930000000000007      57.760000000000012
   277   1       7.220000000000006      45.125000000000007      57.760000000000012
   278   1       7.220000000000006      46.930000000000007      55.955000000000005
   279   1      5.4150000000000063      45.125000000000007      59.565000000000005
   280   1      5.4150000000000063      46.930000000000007      61.370000000000012
   281   1       7.220000000000006      45.125000000000007      61.370000000000012
   282   1       7.220000000000006      46.930000000000007      59.565000000000005
   283   1      5.4150000000000063      45.125000000000007      63.175000000000011
   284   1       7.220000000000006      45.125000000000007      64.980000000000018
   285   1       7.220000000000006      46.930000000000007      63.175000000000011
   286   1       7.220000000000006      45.125000000000007      68.590000000000018
   287   1       7.220000000000006      46.930000000000007      66.785000000000011
   288   1       7.220000000000006      48.735000000000007      25.270000000000007
   289   1       7.220000000000006      48.735000000000007      28.880000000000006
   290   1       7.220000000000006      50.540000000000013      27.075000000000006
   291   1      5.4150000000000063      48.735000000000007      30.685000000000009
   292   1      5.4150000000000063      50.540000000000013      32.490000000000009
   293   1       7.220000000000006      48.735000000000007      32.490000000000009
   294   1       7.220000000000006      50.540000000000013      30.685000000000009
   295   1      5.4150000000000063      48.735000000000007      34.295000000000009
   296   1      5.4150000000000063      50.540000000000013      36.100000000000009
   297   1       7.220000000000006      48.735000000000007      36.100000000000009
   298   1       7.220000000000006      50.540000000000013      34.295000000000009
   299   1      5.4150000000000063      48.735000000000007      37.905000000000015
   300   1      5.4150000000000063      50.540000000000013      39.710000000000008
   301   1       7.220000000000006      48.735000000000007      39.710000000000008
   302   1       7.220000000000006      50.540000000000013      37.905000000000015
   303   1      5.4150000000000063      48.735000000000007      41.515000000000008
   304   1      5.4150000000000063      50.540000000000013      43.320000000000007
   305   1       7.220000000000006      48.735000000000007      43.320000000000007
   306   1       7.220000000000006      50.540000000000013      41.515000000000008
   307   1      5.4150000000000063      48.735000000000007      45.125000000000007
   308   1      5.4150000000000063      50.540000000000013      46.930000000000007
   309   1       7.220000000000006      48.735000000000007      46.930000000000007
   310   1       7.220000000000006      50.540000000000013      45.125000000000007
   311   1      5.4150000000000063      48.735000000000007      48.735000000000007
   312   1      5.4150000000000063      50.540000000000013      50.540000000000013
   313   1       7.220000000000006      48.735000000000007      50.540000000000013
   314   1       7.220000000000006      50.540000000000013      48.735000000000007
   315   1      5.4150000000000063      48.735000000000007      52.345000000000006
   316   1      5.4150000000000063      50.540000000000013      54.150000000000013
   317   1       7.220000000000006      48.735000000000007      54.150000000000013
   318   1       7.220000000000006      50.540000000000013      52.345000000000006
   319   1      5.4150000000000063      48.735000000000007      55.955000000000005
   320   1      5.4150000000000063      50.540000000000013      57.760000000000012
   321   1       7.220000000000006      48.735000000000007      57.760000000000012
   322   1       7.220000000000006      50.540000000000013      55.955000000000005
   323   1      5.4150000000000063      48.735000000000007      59.565000000000005
   324   1       7.220000000000006      48.735000000000007      61.370000000000012
   325   1       7.220000000000006      50.540000000000013      59.565000000000005
   326   1       7.220000000000006      48.735000000000007      64.980000000000018
   327   1       7.220000000000006      50.540000000000013      63.175000000000011
   328   1       7.220000000000006      52.345000000000006      28.880000000000006
   329   1       7.220000000000006      52.345000000000006      32.490000000000009
   330   1       7.220000000000006      54.150000000000013      30.685000000000009
   331   1      5.4150000000000063      52.345000000000006      34.295000000000009
   332   1      5.4150000000000063      54.150000000000013      36.100000000000009
   333   1       7.220000000000006      52.345000000000006      36.100000000000009
   334   1       7.220000000000006      54.150000000000013      34.295000000000009
   335   1      5.4150000000000063      52.345000000000006      37.905000000000015
   336   1      5.4150000000000063      54.150000000000013      39.710000000000008
   337   1       7.220000000000006      52.345000000000006      39.710000000000008
   338   1       7.220000000000006      54.150000000000013      37.905000000000015
   339   1      5.4150000000000063      52.345000000000006      41.515000000000008
   340   1      5.4150000000000063      54.150000000000013      43.320000000000007
   341   1       7.220000000000006      52.345000000000006      43.320000000000007
   342   1       7.220000000000006      54.150000000000013      41.515000000000008
   343   1      5.4150000000000063      52.345000000000006      45.125000000000007
   344   1      5.4150000000000063      54.150000000000013      46.930000000000007
   345   1       7.220000000000006      52.345000000000006      46.930000000000007
   346   1       7.220000000000006      54.150000000000013      45.125000000000007
   347   1      5.4150000000000063      52.345000000000006      48.735000000000007
   348   1      5.4150000000000063      54.150000000000013      50.540000000000013
   349   1       7.220000000000006      52.345000000000006      50.540000000000013
   350   1       7.220000000000006      54.150000000000013      48.735000000000007
   351   1      5.4150000000000063      52.345000000000006      52.345000000000006
   352   1      5.4150000000000063      54.150000000000013      54.150000000000013
   353   1       7.220000000000006      52.345000000000006      54.150000000000013
   354   1       7.220000000000006      54.150000000000013      52.345000000000006
   355   1      5.4150000000000063      52.345000000000006      55.955000000000005
   356   1       7.220000000000006      52.345000000000006      57.760000000000012
   357   1       7.220000000000006      54.150000000000013      55.955000000000005
   358   1       7.220000000000006      52.345000000000006      61.370000000000012