model_files/PtFe/PtFe_30000/PtFe_310/PtFe_310_fcc_30527_temp.data (written by ASE) 

30527 	 atoms 
2  atom types
0.0                      86  xlo xhi
0.0                      86  ylo yhi
0.0                      86  zlo zhi


Atoms 

     1   1      85.999999999999986       39.47999999999999      41.359999999999992
     2   1      85.999999999999986      41.359999999999992       39.47999999999999
     3   1      85.999999999999986       39.47999999999999       45.11999999999999
     4   1      85.999999999999986      41.359999999999992      43.239999999999981
     5   1      85.999999999999986      41.359999999999992      46.999999999999986
     6   1      85.999999999999986      43.239999999999981      41.359999999999992
     7   1      85.999999999999986       45.11999999999999       39.47999999999999
     8   1      85.999999999999986      43.239999999999981       45.11999999999999
     9   1      85.999999999999986       45.11999999999999      43.239999999999981
    10   1      85.999999999999986       45.11999999999999      46.999999999999986
    11   1      85.999999999999986      46.999999999999986      41.359999999999992
    12   1      85.999999999999986      46.999999999999986       45.11999999999999
    13   1      3.7599999999999909      28.199999999999989      30.079999999999988
    14   1      3.7599999999999909      30.079999999999988      28.199999999999989
    15   1      3.7599999999999909      28.199999999999989      33.839999999999989
    16   1      3.7599999999999909      30.079999999999988      31.959999999999987
    17   1      3.7599999999999909      28.199999999999989      37.599999999999987
    18   1      3.7599999999999909      30.079999999999988      35.719999999999985
    19   1      3.7599999999999909      28.199999999999989      41.359999999999992
    20   1      3.7599999999999909      30.079999999999988       39.47999999999999
    21   1      3.7599999999999909      28.199999999999989       45.11999999999999
    22   1      3.7599999999999909      30.079999999999988      43.239999999999981
    23   1      3.7599999999999909      28.199999999999989      48.879999999999988
    24   1      3.7599999999999909      30.079999999999988      46.999999999999986
    25   1      3.7599999999999909      28.199999999999989      52.639999999999986
    26   1      3.7599999999999909      30.079999999999988      50.759999999999991
    27   1      3.7599999999999909      28.199999999999989      56.399999999999991
    28   1      3.7599999999999909      30.079999999999988      54.519999999999989
    29   1      3.7599999999999909      30.079999999999988      58.279999999999987
    30   1      3.7599999999999909      31.959999999999987      30.079999999999988
    31   1      3.7599999999999909      33.839999999999989      28.199999999999989
    32   1      1.8799999999999883      33.839999999999989      33.839999999999989
    33   1      3.7599999999999909      31.959999999999987      33.839999999999989
    34   1      3.7599999999999909      33.839999999999989      31.959999999999987
    35   1      1.8799999999999883      33.839999999999989      37.599999999999987
    36   1      3.7599999999999909      31.959999999999987      37.599999999999987
    37   1      3.7599999999999909      33.839999999999989      35.719999999999985
    38   1      1.8799999999999883      33.839999999999989      41.359999999999992
    39   1      3.7599999999999909      31.959999999999987      41.359999999999992
    40   1      3.7599999999999909      33.839999999999989       39.47999999999999
    41   1      1.8799999999999883      33.839999999999989       45.11999999999999
    42   1      3.7599999999999909      31.959999999999987       45.11999999999999
    43   1      3.7599999999999909      33.839999999999989      43.239999999999981
    44   1      1.8799999999999883      33.839999999999989      48.879999999999988
    45   1      3.7599999999999909      31.959999999999987      48.879999999999988
    46   1      3.7599999999999909      33.839999999999989      46.999999999999986
    47   1      1.8799999999999883      33.839999999999989      52.639999999999986
    48   1      3.7599999999999909      31.959999999999987      52.639999999999986
    49   1      3.7599999999999909      33.839999999999989      50.759999999999991
    50   1      3.7599999999999909      31.959999999999987      56.399999999999991
    51   1      3.7599999999999909      33.839999999999989      54.519999999999989
    52   1      3.7599999999999909      33.839999999999989      58.279999999999987
    53   1      3.7599999999999909      35.719999999999985      30.079999999999988
    54   1      3.7599999999999909      37.599999999999987      28.199999999999989
    55   1      1.8799999999999883      37.599999999999987      33.839999999999989
    56   1      3.7599999999999909      35.719999999999985      33.839999999999989
    57   1      3.7599999999999909      37.599999999999987      31.959999999999987
    58   1      1.8799999999999883      35.719999999999985      35.719999999999985
    59   1      1.8799999999999883      37.599999999999987      37.599999999999987
    60   1      3.7599999999999909      35.719999999999985      37.599999999999987
    61   1      3.7599999999999909      37.599999999999987      35.719999999999985
    62   1      1.8799999999999883      35.719999999999985       39.47999999999999
    63   1      1.8799999999999883      37.599999999999987      41.359999999999992
    64   1      3.7599999999999909      35.719999999999985      41.359999999999992
    65   1      3.7599999999999909      37.599999999999987       39.47999999999999
    66   1      1.8799999999999883      35.719999999999985      43.239999999999981
    67   1      1.8799999999999883      37.599999999999987       45.11999999999999
    68   1      3.7599999999999909      35.719999999999985       45.11999999999999
    69   1      3.7599999999999909      37.599999999999987      43.239999999999981
    70   1      1.8799999999999883      35.719999999999985      46.999999999999986
    71   1      1.8799999999999883      37.599999999999987      48.879999999999988
    72   1      3.7599999999999909      35.719999999999985      48.879999999999988
    73   1      3.7599999999999909      37.599999999999987      46.999999999999986
    74   1      1.8799999999999883      35.719999999999985      50.759999999999991
    75   1      1.8799999999999883      37.599999999999987      52.639999999999986
    76   1      3.7599999999999909      35.719999999999985      52.639999999999986
    77   1      3.7599999999999909      37.599999999999987      50.759999999999991
    78   1      3.7599999999999909      35.719999999999985      56.399999999999991
    79   1      3.7599999999999909      37.599999999999987      54.519999999999989
    80   1      3.7599999999999909      37.599999999999987      58.279999999999987
    81   1      3.7599999999999909       39.47999999999999      30.079999999999988
    82   1      3.7599999999999909      41.359999999999992      28.199999999999989
    83   1      1.8799999999999883      41.359999999999992      33.839999999999989
    84   1      3.7599999999999909       39.47999999999999      33.839999999999989
    85   1      3.7599999999999909      41.359999999999992      31.959999999999987
    86   1      1.8799999999999883       39.47999999999999      35.719999999999985
    87   1      1.8799999999999883      41.359999999999992      37.599999999999987
    88   1      3.7599999999999909       39.47999999999999      37.599999999999987
    89   1      3.7599999999999909      41.359999999999992      35.719999999999985
    90   1      1.8799999999999883       39.47999999999999       39.47999999999999
    91   1      1.8799999999999883      41.359999999999992      41.359999999999992
    92   1      3.7599999999999909       39.47999999999999      41.359999999999992
    93   1      3.7599999999999909      41.359999999999992       39.47999999999999
    94   1      1.8799999999999883       39.47999999999999      43.239999999999981
    95   1      1.8799999999999883      41.359999999999992       45.11999999999999
    96   1      3.7599999999999909       39.47999999999999       45.11999999999999
    97   1      3.7599999999999909      41.359999999999992      43.239999999999981
    98   1      1.8799999999999883       39.47999999999999      46.999999999999986
    99   1      1.8799999999999883      41.359999999999992      48.879999999999988
   100   1      3.7599999999999909       39.47999999999999      48.879999999999988
   101   1      3.7599999999999909      41.359999999999992      46.999999999999986
   102   1      1.8799999999999883       39.47999999999999      50.759999999999991
   103   1      1.8799999999999883      41.359999999999992      52.639999999999986
   104   1      3.7599999999999909       39.47999999999999      52.639999999999986
   105   1      3.7599999999999909      41.359999999999992      50.759999999999991
   106   1      3.7599999999999909       39.47999999999999      56.399999999999991
   107   1      3.7599999999999909      41.359999999999992      54.519999999999989
   108   1      3.7599999999999909      41.359999999999992      58.279999999999987
   109   1      3.7599999999999909      43.239999999999981      30.079999999999988
   110   1      3.7599999999999909       45.11999999999999      28.199999999999989
   111   1      1.8799999999999883       45.11999999999999      33.839999999999989
   112   1      3.7599999999999909      43.239999999999981      33.839999999999989
   113   1      3.7599999999999909       45.11999999999999      31.959999999999987
   114   1      1.8799999999999883      43.239999999999981      35.719999999999985
   115   1      1.8799999999999883       45.11999999999999      37.599999999999987
   116   1      3.7599999999999909      43.239999999999981      37.599999999999987
   117   1      3.7599999999999909       45.11999999999999      35.719999999999985
   118   1      1.8799999999999883      43.239999999999981       39.47999999999999
   119   1      1.8799999999999883       45.11999999999999      41.359999999999992
   120   1      3.7599999999999909      43.239999999999981      41.359999999999992
   121   1      3.7599999999999909       45.11999999999999       39.47999999999999
   122   1      1.8799999999999883      43.239999999999981      43.239999999999981
   123   1      1.8799999999999883       45.11999999999999       45.11999999999999
   124   1      3.7599999999999909      43.239999999999981       45.11999999999999
   125   1      3.7599999999999909       45.11999999999999      43.239999999999981
   126   1      1.8799999999999883      43.239999999999981      46.999999999999986
   127   1      1.8799999999999883       45.11999999999999      48.879999999999988
   128   1      3.7599999999999909      43.239999999999981      48.879999999999988
   129   1      3.7599999999999909       45.11999999999999      46.999999999999986
   130   1      1.8799999999999883      43.239999999999981      50.759999999999991
   131   1      1.8799999999999883       45.11999999999999      52.639999999999986
   132   1      3.7599999999999909      43.239999999999981      52.639999999999986
   133   1      3.7599999999999909       45.11999999999999      50.759999999999991
   134   1      3.7599999999999909      43.239999999999981      56.399999999999991
   135   1      3.7599999999999909       45.11999999999999      54.519999999999989
   136   1      3.7599999999999909       45.11999999999999      58.279999999999987
   137   1      3.7599999999999909      46.999999999999986      30.079999999999988
   138   1      3.7599999999999909      48.879999999999988      28.199999999999989
   139   1      1.8799999999999883      48.879999999999988      33.839999999999989
   140   1      3.7599999999999909      46.999999999999986      33.839999999999989
   141   1      3.7599999999999909      48.879999999999988      31.959999999999987
   142   1      1.8799999999999883      46.999999999999986      35.719999999999985
   143   1      1.8799999999999883      48.879999999999988      37.599999999999987
   144   1      3.7599999999999909      46.999999999999986      37.599999999999987
   145   1      3.7599999999999909      48.879999999999988      35.719999999999985
   146   1      1.8799999999999883      46.999999999999986       39.47999999999999
   147   1      1.8799999999999883      48.879999999999988      41.359999999999992
   148   1      3.7599999999999909      46.999999999999986      41.359999999999992
   149   1      3.7599999999999909      48.879999999999988       39.47999999999999
   150   1      1.8799999999999883      46.999999999999986      43.239999999999981
   151   1      1.8799999999999883      48.879999999999988       45.11999999999999
   152   1      3.7599999999999909      46.999999999999986       45.11999999999999
   153   1      3.7599999999999909      48.879999999999988      43.239999999999981
   154   1      1.8799999999999883      46.999999999999986      46.999999999999986
   155   1      1.8799999999999883      48.879999999999988      48.879999999999988
   156   1      3.7599999999999909      46.999999999999986      48.879999999999988
   157   1      3.7599999999999909      48.879999999999988      46.999999999999986
   158   1      1.8799999999999883      46.999999999999986      50.759999999999991
   159   1      1.8799999999999883      48.879999999999988      52.639999999999986
   160   1      3.7599999999999909      46.999999999999986      52.639999999999986
   161   1      3.7599999999999909      48.879999999999988      50.759999999999991
   162   1      3.7599999999999909      46.999999999999986      56.399999999999991
   163   1      3.7599999999999909      48.879999999999988      54.519999999999989
   164   1      3.7599999999999909      48.879999999999988      58.279999999999987
   165   1      3.7599999999999909      50.759999999999991      30.079999999999988
   166   1      3.7599999999999909      52.639999999999986      28.199999999999989
   167   1      1.8799999999999883      52.639999999999986      33.839999999999989
   168   1      3.7599999999999909      50.759999999999991      33.839999999999989
   169   1      3.7599999999999909      52.639999999999986      31.959999999999987
   170   1      1.8799999999999883      50.759999999999991      35.719999999999985
   171   1      1.8799999999999883      52.639999999999986      37.599999999999987
   172   1      3.7599999999999909      50.759999999999991      37.599999999999987
   173   1      3.7599999999999909      52.639999999999986      35.719999999999985
   174   1      1.8799999999999883      50.759999999999991       39.47999999999999
   175   1      1.8799999999999883      52.639999999999986      41.359999999999992
   176   1      3.7599999999999909      50.759999999999991      41.359999999999992
   177   1      3.7599999999999909      52.639999999999986       39.47999999999999
   178   1      1.8799999999999883      50.759999999999991      43.239999999999981
   179   1      1.8799999999999883      52.639999999999986       45.11999999999999
   180   1      3.7599999999999909      50.759999999999991       45.11999999999999
   181   1      3.7599999999999909      52.639999999999986      43.239999999999981
   182   1      1.8799999999999883      50.759999999999991      46.999999999999986
   183   1      1.8799999999999883      52.639999999999986      48.879999999999988
   184   1      3.7599999999999909      50.759999999999991      48.879999999999988
   185   1      3.7599999999999909      52.639999999999986      46.999999999999986
   186   1      1.8799999999999883      50.759999999999991      50.759999999999991
   187   1      1.8799999999999883      52.639999999999986      52.639999999999986
   188   1      3.7599999999999909      50.759999999999991      52.639999999999986
   189   1      3.7599999999999909      52.639999999999986      50.759999999999991
   190   1      3.7599999999999909      50.759999999999991      56.399999999999991
   191   1      3.7599999999999909      52.639999999999986      54.519999999999989
   192   1      3.7599999999999909      52.639999999999986      58.279999999999987
   193   1      3.7599999999999909      54.519999999999989      30.079999999999988
   194   1      3.7599999999999909      56.399999999999991      28.199999999999989
   195   1      3.7599999999999909      54.519999999999989      33.839999999999989
   196   1      3.7599999999999909      56.399999999999991      31.959999999999987
   197   1      3.7599999999999909      54.519999999999989      37.599999999999987
   198   1      3.7599999999999909      56.399999999999991      35.719999999999985
   199   1      3.7599999999999909      54.519999999999989      41.359999999999992
   200   1      3.7599999999999909      56.399999999999991       39.47999999999999
   201   1      3.7599999999999909      54.519999999999989       45.11999999999999
   202   1      3.7599999999999909      56.399999999999991      43.239999999999981
   203   1      3.7599999999999909      54.519999999999989      48.879999999999988
   204   1      3.7599999999999909      56.399999999999991      46.999999999999986
   205   1      3.7599999999999909      54.519999999999989      52.639999999999986
   206   1      3.7599999999999909      56.399999999999991      50.759999999999991
   207   1      3.7599999999999909      54.519999999999989      56.399999999999991
   208   1      3.7599999999999909      56.399999999999991      54.519999999999989
   209   1      3.7599999999999909      56.399999999999991      58.279999999999987
   210   1      3.7599999999999909      58.279999999999987      30.079999999999988
   211   1      3.7599999999999909      58.279999999999987      33.839999999999989
   212   1      3.7599999999999909      58.279999999999987      37.599999999999987
   213   1      3.7599999999999909      58.279999999999987      41.359999999999992
   214   1      3.7599999999999909      58.279999999999987       45.11999999999999
   215   1      3.7599999999999909      58.279999999999987      48.879999999999988
   216   1      3.7599999999999909      58.279999999999987      52.639999999999986
   217   1      3.7599999999999909      58.279999999999987      56.399999999999991
   218   1      7.5199999999999889      16.919999999999987      18.799999999999986
   219   1      7.5199999999999889      18.799999999999986      16.919999999999987
   220   1      7.5199999999999889      16.919999999999987      22.559999999999985
   221   1      7.5199999999999889      18.799999999999986      20.679999999999989
   222   1      7.5199999999999889      16.919999999999987       26.31999999999999
   223   1      7.5199999999999889      18.799999999999986      24.439999999999994
   224   1      7.5199999999999889      16.919999999999987      30.079999999999988
   225   1      7.5199999999999889      18.799999999999986      28.199999999999989
   226   1      7.5199999999999889      16.919999999999987      33.839999999999989
   227   1      7.5199999999999889      18.799999999999986      31.959999999999987
   228   1      7.5199999999999889      16.919999999999987      37.599999999999987
   229   1      7.5199999999999889      18.799999999999986      35.719999999999985
   230   1      7.5199999999999889      16.919999999999987      41.359999999999992
   231   1      7.5199999999999889      18.799999999999986       39.47999999999999
   232   1      7.5199999999999889      16.919999999999987       45.11999999999999
   233   1      7.5199999999999889      18.799999999999986      43.239999999999981
   234   1      7.5199999999999889      16.919999999999987      48.879999999999988
   235   1      7.5199999999999889      18.799999999999986      46.999999999999986
   236   1      7.5199999999999889      16.919999999999987      52.639999999999986
   237   1      7.5199999999999889      18.799999999999986      50.759999999999991
   238   1      7.5199999999999889      16.919999999999987      56.399999999999991
   239   1      7.5199999999999889      18.799999999999986      54.519999999999989
   240   1      7.5199999999999889      16.919999999999987      60.159999999999989
   241   1      7.5199999999999889      18.799999999999986      58.279999999999987
   242   1      7.5199999999999889      16.919999999999987       63.91999999999998
   243   1      7.5199999999999889      18.799999999999986      62.039999999999985
   244   1      7.5199999999999889      16.919999999999987      67.679999999999978
   245   1      7.5199999999999889      18.799999999999986      65.799999999999983
   246   1      7.5199999999999889      18.799999999999986      69.559999999999988
   247   1      7.5199999999999889      20.679999999999989      18.799999999999986
   248   1      7.5199999999999889      22.559999999999985      16.919999999999987
   249   1      5.6399999999999926      22.559999999999985      22.559999999999985
   250   1      7.5199999999999889      20.679999999999989      22.559999999999985
   251   1      7.5199999999999889      22.559999999999985      20.679999999999989
   252   1      5.6399999999999926      22.559999999999985       26.31999999999999
   253   1      7.5199999999999889      20.679999999999989       26.31999999999999
   254   1      7.5199999999999889      22.559999999999985      24.439999999999994
   255   1      5.6399999999999926      22.559999999999985      30.079999999999988
   256   1      7.5199999999999889      20.679999999999989      30.079999999999988
   257   1      7.5199999999999889      22.559999999999985      28.199999999999989
   258   1      5.6399999999999926      22.559999999999985      33.839999999999989
   259   1      7.5199999999999889      20.679999999999989      33.839999999999989
   260   1      7.5199999999999889      22.559999999999985      31.959999999999987
   261   1      5.6399999999999926      22.559999999999985      37.599999999999987
   262   1      7.5199999999999889      20.679999999999989      37.599999999999987
   263   1      7.5199999999999889      22.559999999999985      35.719999999999985
   264   1      5.6399999999999926      22.559999999999985      41.359999999999992
   265   1      7.5199999999999889      20.679999999999989      41.359999999999992
   266   1      7.5199999999999889      22.559999999999985       39.47999999999999
   267   1      5.6399999999999926      22.559999999999985       45.11999999999999
   268   1      7.5199999999999889      20.679999999999989       45.11999999999999
   269   1      7.5199999999999889      22.559999999999985      43.239999999999981
   270   1      5.6399999999999926      22.559999999999985      48.879999999999988
   271   1      7.5199999999999889      20.679999999999989      48.879999999999988
   272   1      7.5199999999999889      22.559999999999985      46.999999999999986
   273   1      5.6399999999999926      22.559999999999985      52.639999999999986
   274   1      7.5199999999999889      20.679999999999989      52.639999999999986
   275   1      7.5199999999999889      22.559999999999985      50.759999999999991
   276   1      5.6399999999999926      22.559999999999985      56.399999999999991
   277   1      7.5199999999999889      20.679999999999989      56.399999999999991
   278   1      7.5199999999999889      22.559999999999985      54.519999999999989
   279   1      5.6399999999999926      22.559999999999985      60.159999999999989
   280   1      7.5199999999999889      20.679999999999989      60.159999999999989
   281   1      7.5199999999999889      22.559999999999985      58.279999999999987
   282   1      5.6399999999999926      22.559999999999985       63.91999999999998
   283   1      7.5199999999999889      20.679999999999989       63.91999999999998
   284   1      7.5199999999999889      22.559999999999985      62.039999999999985
   285   1      7.5199999999999889      20.679999999999989      67.679999999999978
   286   1      7.5199999999999889      22.559999999999985      65.799999999999983
   287   1      7.5199999999999889      22.559999999999985      69.559999999999988
   288   1      7.5199999999999889      24.439999999999994      18.799999999999986
   289   1      7.5199999999999889       26.31999999999999      16.919999999999987
   290   1      5.6399999999999926       26.31999999999999      22.559999999999985
   291   1      7.5199999999999889      24.439999999999994      22.559999999999985
   292   1      7.5199999999999889       26.31999999999999      20.679999999999989
   293   1      5.6399999999999926      24.439999999999994      24.439999999999994
   294   1      5.6399999999999926       26.31999999999999       26.31999999999999
   295   1      7.5199999999999889      24.439999999999994       26.31999999999999
   296   1      7.5199999999999889       26.31999999999999      24.439999999999994
   297   1      5.6399999999999926      24.439999999999994      28.199999999999989
   298   1      5.6399999999999926       26.31999999999999      30.079999999999988
   299   1      7.5199999999999889      24.439999999999994      30.079999999999988
   300   1      7.5199999999999889       26.31999999999999      28.199999999999989
   301   1      5.6399999999999926      24.439999999999994      31.959999999999987
   302   1      5.6399999999999926       26.31999999999999      33.839999999999989
   303   1      7.5199999999999889      24.439999999999994      33.839999999999989
   304   1      7.5199999999999889       26.31999999999999      31.959999999999987
   305   1      5.6399999999999926      24.439999999999994      35.719999999999985
   306   1      5.6399999999999926       26.31999999999999      37.599999999999987
   307   1      7.5199999999999889      24.439999999999994      37.599999999999987
   308   1      7.5199999999999889       26.31999999999999      35.719999999999985
   309   1      5.6399999999999926      24.439999999999994       39.47999999999999
   310   1      5.6399999999999926       26.31999999999999      41.359999999999992
   311   1      7.5199999999999889      24.439999999999994      41.359999999999992
   312   1      7.5199999999999889       26.31999999999999       39.47999999999999
   313   1      5.6399999999999926      24.439999999999994      43.239999999999981
   314   1      5.6399999999999926       26.31999999999999       45.11999999999999
   315   1      7.5199999999999889      24.439999999999994       45.11999999999999
   316   1      7.5199999999999889       26.31999999999999      43.239999999999981
   317   1      5.6399999999999926      24.439999999999994      46.999999999999986
   318   1      5.6399999999999926       26.31999999999999      48.879999999999988
   319   1      7.5199999999999889      24.439999999999994      48.879999999999988
   320   1      7.5199999999999889       26.31999999999999      46.999999999999986
   321   1      5.6399999999999926      24.439999999999994      50.759999999999991
   322   1      5.6399999999999926       26.31999999999999      52.639999999999986
   323   1      7.5199999999999889      24.439999999999994      52.639999999999986
   324   1      7.5199999999999889       26.31999999999999      50.759999999999991
   325   1      5.6399999999999926      24.439999999999994      54.519999999999989
   326   1      5.6399999999999926       26.31999999999999      56.399999999999991
   327   1      7.5199999999999889      24.439999999999994      56.399999999999991
   328   1      7.5199999999999889       26.31999999999999      54.519999999999989
   329   1      5.6399999999999926      24.439999999999994      58.279999999999987
   330   1      5.6399999999999926       26.31999999999999      60.159999999999989
   331   1      7.5199999999999889      24.439999999999994      60.159999999999989
   332   1      7.5199999999999889       26.31999999999999      58.279999999999987
   333   1      5.6399999999999926      24.439999999999994      62.039999999999985
   334   1      5.6399999999999926       26.31999999999999       63.91999999999998
   335   1      7.5199999999999889      24.439999999999994       63.91999999999998
   336   1      7.5199999999999889       26.31999999999999      62.039999999999985
   337   1      7.5199999999999889      24.439999999999994      67.679999999999978
   338   1      7.5199999999999889       26.31999999999999      65.799999999999983
   339   1      7.5199999999999889       26.31999999999999      69.559999999999988
   340   1      7.5199999999999889      28.199999999999989      18.799999999999986
   341   1      7.5199999999999889      30.079999999999988      16.919999999999987
   342   1      5.6399999999999926      30.079999999999988      22.559999999999985
   343   1      7.5199999999999889      28.199999999999989      22.559999999999985
   344   1      7.5199999999999889      30.079999999999988      20.679999999999989
   345   1      5.6399999999999926      28.199999999999989      24.439999999999994
   346   1      5.6399999999999926      30.079999999999988       26.31999999999999
   347   1      7.5199999999999889      28.199999999999989       26.31999999999999
   348   1      7.5199999999999889      30.079999999999988      24.439999999999994
   349   1      5.6399999999999926      28.199999999999989      28.199999999999989
   350   1      5.6399999999999926      30.079999999999988      30.079999999999988
   351   1      7.5199999999999889      28.199999999999989      30.079999999999988
   352   1      7.5199999999999889      30.079999999999988      28.199999999999989
   353   1      5.6399999999999926      28.199999999999989      31.959999999999987
   354   1      5.6399999999999926      30.079999999999988      33.839999999999989
   355   1      7.5199999999999889      28.199999999999989      33.839999999999989
   356   1      7.5199999999999889      30.079999999999988      31.959999999999987
   357   1      5.6399999999999926      28.199999999999989      35.719999999999985
   358   1      5.6399999999999926      30.079999999999988      37.599999999999987