model_files/Co/Co_3000/Co_520/data.Co_520_hcp_2967 (written by ASE) 

2967 	 atoms 
1  atom types
0.0                      27  xlo xhi
0.0                      27  ylo yhi
0.0                      27  zlo zhi


Atoms 

     1   1      1.2550000000000026      6.2750000000000021      7.5300000000000002
     2   1      1.2550000000000026      6.2750000000000021      10.040000000000001
     3   1      1.2550000000000026      6.2750000000000021      12.549999999999999
     4   1      1.2550000000000026      6.2750000000000021                   15.06
     5   1      1.2550000000000026      6.2750000000000021                   17.57
     6   1      1.2550000000000026      7.5300000000000002      6.2750000000000021
     7   1  1.7763568394002505e-15      8.7850000000000001      8.7850000000000001
     8   1      1.2550000000000026      7.5300000000000002      8.7850000000000001
     9   1      1.2550000000000026      8.7850000000000001      7.5300000000000002
    10   1  1.7763568394002505e-15      8.7850000000000001      11.295000000000002
    11   1      1.2550000000000026      7.5300000000000002      11.295000000000002
    12   1      1.2550000000000026      8.7850000000000001      10.040000000000001
    13   1  1.7763568394002505e-15      8.7850000000000001      13.804999999999998
    14   1      1.2550000000000026      7.5300000000000002      13.804999999999998
    15   1      1.2550000000000026      8.7850000000000001      12.549999999999999
    16   1  1.7763568394002505e-15      8.7850000000000001      16.315000000000001
    17   1      1.2550000000000026      7.5300000000000002      16.315000000000001
    18   1      1.2550000000000026      8.7850000000000001                   15.06
    19   1      1.2550000000000026      7.5300000000000002      18.824999999999999
    20   1      1.2550000000000026      8.7850000000000001                   17.57
    21   1      1.2550000000000026      10.040000000000001      6.2750000000000021
    22   1  1.7763568394002505e-15      11.295000000000002      8.7850000000000001
    23   1      1.2550000000000026      10.040000000000001      8.7850000000000001
    24   1      1.2550000000000026      11.295000000000002      7.5300000000000002
    25   1  1.7763568394002505e-15      10.040000000000001      10.040000000000001
    26   1  1.7763568394002505e-15      11.295000000000002      11.295000000000002
    27   1      1.2550000000000026      10.040000000000001      11.295000000000002
    28   1      1.2550000000000026      11.295000000000002      10.040000000000001
    29   1  1.7763568394002505e-15      10.040000000000001      12.549999999999999
    30   1  1.7763568394002505e-15      11.295000000000002      13.804999999999998
    31   1      1.2550000000000026      10.040000000000001      13.804999999999998
    32   1      1.2550000000000026      11.295000000000002      12.549999999999999
    33   1  1.7763568394002505e-15      10.040000000000001                   15.06
    34   1  1.7763568394002505e-15      11.295000000000002      16.315000000000001
    35   1      1.2550000000000026      10.040000000000001      16.315000000000001
    36   1      1.2550000000000026      11.295000000000002                   15.06
    37   1      1.2550000000000026      10.040000000000001      18.824999999999999
    38   1      1.2550000000000026      11.295000000000002                   17.57
    39   1      1.2550000000000026      12.549999999999999      6.2750000000000021
    40   1  1.7763568394002505e-15      13.804999999999998      8.7850000000000001
    41   1      1.2550000000000026      12.549999999999999      8.7850000000000001
    42   1      1.2550000000000026      13.804999999999998      7.5300000000000002
    43   1  1.7763568394002505e-15      12.549999999999999      10.040000000000001
    44   1  1.7763568394002505e-15      13.804999999999998      11.295000000000002
    45   1      1.2550000000000026      12.549999999999999      11.295000000000002
    46   1      1.2550000000000026      13.804999999999998      10.040000000000001
    47   1  1.7763568394002505e-15      12.549999999999999      12.549999999999999
    48   1  1.7763568394002505e-15      13.804999999999998      13.804999999999998
    49   1      1.2550000000000026      12.549999999999999      13.804999999999998
    50   1      1.2550000000000026      13.804999999999998      12.549999999999999
    51   1  1.7763568394002505e-15      12.549999999999999                   15.06
    52   1  1.7763568394002505e-15      13.804999999999998      16.315000000000001
    53   1      1.2550000000000026      12.549999999999999      16.315000000000001
    54   1      1.2550000000000026      13.804999999999998                   15.06
    55   1      1.2550000000000026      12.549999999999999      18.824999999999999
    56   1      1.2550000000000026      13.804999999999998                   17.57
    57   1      1.2550000000000026                   15.06      6.2750000000000021
    58   1  1.7763568394002505e-15      16.315000000000001      8.7850000000000001
    59   1      1.2550000000000026                   15.06      8.7850000000000001
    60   1      1.2550000000000026      16.315000000000001      7.5300000000000002
    61   1  1.7763568394002505e-15                   15.06      10.040000000000001
    62   1  1.7763568394002505e-15      16.315000000000001      11.295000000000002
    63   1      1.2550000000000026                   15.06      11.295000000000002
    64   1      1.2550000000000026      16.315000000000001      10.040000000000001
    65   1  1.7763568394002505e-15                   15.06      12.549999999999999
    66   1  1.7763568394002505e-15      16.315000000000001      13.804999999999998
    67   1      1.2550000000000026                   15.06      13.804999999999998
    68   1      1.2550000000000026      16.315000000000001      12.549999999999999
    69   1  1.7763568394002505e-15                   15.06                   15.06
    70   1  1.7763568394002505e-15      16.315000000000001      16.315000000000001
    71   1      1.2550000000000026                   15.06      16.315000000000001
    72   1      1.2550000000000026      16.315000000000001                   15.06
    73   1      1.2550000000000026                   15.06      18.824999999999999
    74   1      1.2550000000000026      16.315000000000001                   17.57
    75   1      1.2550000000000026                   17.57      6.2750000000000021
    76   1      1.2550000000000026                   17.57      8.7850000000000001
    77   1      1.2550000000000026      18.824999999999999      7.5300000000000002
    78   1      1.2550000000000026                   17.57      11.295000000000002
    79   1      1.2550000000000026      18.824999999999999      10.040000000000001
    80   1      1.2550000000000026                   17.57      13.804999999999998
    81   1      1.2550000000000026      18.824999999999999      12.549999999999999
    82   1      1.2550000000000026                   17.57      16.315000000000001
    83   1      1.2550000000000026      18.824999999999999                   15.06
    84   1      1.2550000000000026                   17.57      18.824999999999999
    85   1      1.2550000000000026      18.824999999999999                   17.57
    86   1      2.5100000000000011      2.5100000000000011      2.5100000000000011
    87   1      2.5100000000000011      3.7650000000000001      3.7650000000000001
    88   1      3.7650000000000001      2.5100000000000011      3.7650000000000001
    89   1      3.7650000000000001      3.7650000000000001      2.5100000000000011
    90   1      2.5100000000000011      2.5100000000000011      5.0200000000000014
    91   1      2.5100000000000011      3.7650000000000001      6.2750000000000021
    92   1      3.7650000000000001      2.5100000000000011      6.2750000000000021
    93   1      3.7650000000000001      3.7650000000000001      5.0200000000000014
    94   1      2.5100000000000011      2.5100000000000011      7.5300000000000002
    95   1      2.5100000000000011      3.7650000000000001      8.7850000000000001
    96   1      3.7650000000000001      2.5100000000000011      8.7850000000000001
    97   1      3.7650000000000001      3.7650000000000001      7.5300000000000002
    98   1      2.5100000000000011      2.5100000000000011      10.040000000000001
    99   1      2.5100000000000011      3.7650000000000001      11.295000000000002
   100   1      3.7650000000000001      2.5100000000000011      11.295000000000002
   101   1      3.7650000000000001      3.7650000000000001      10.040000000000001
   102   1      2.5100000000000011      2.5100000000000011      12.549999999999999
   103   1      2.5100000000000011      3.7650000000000001      13.804999999999998
   104   1      3.7650000000000001      2.5100000000000011      13.804999999999998
   105   1      3.7650000000000001      3.7650000000000001      12.549999999999999
   106   1      2.5100000000000011      2.5100000000000011                   15.06
   107   1      2.5100000000000011      3.7650000000000001      16.315000000000001
   108   1      3.7650000000000001      2.5100000000000011      16.315000000000001
   109   1      3.7650000000000001      3.7650000000000001                   15.06
   110   1      2.5100000000000011      2.5100000000000011                   17.57
   111   1      2.5100000000000011      3.7650000000000001      18.824999999999999
   112   1      3.7650000000000001      2.5100000000000011      18.824999999999999
   113   1      3.7650000000000001      3.7650000000000001                   17.57
   114   1      2.5100000000000011      2.5100000000000011      20.079999999999998
   115   1      2.5100000000000011      3.7650000000000001      21.334999999999994
   116   1      3.7650000000000001      2.5100000000000011      21.334999999999994
   117   1      3.7650000000000001      3.7650000000000001      20.079999999999998
   118   1      2.5100000000000011      2.5100000000000011                   22.59
   119   1      3.7650000000000001      3.7650000000000001                   22.59
   120   1      2.5100000000000011      5.0200000000000014      2.5100000000000011
   121   1      2.5100000000000011      6.2750000000000021      3.7650000000000001
   122   1      3.7650000000000001      5.0200000000000014      3.7650000000000001
   123   1      3.7650000000000001      6.2750000000000021      2.5100000000000011
   124   1      2.5100000000000011      5.0200000000000014      5.0200000000000014
   125   1      2.5100000000000011      6.2750000000000021      6.2750000000000021
   126   1      3.7650000000000001      5.0200000000000014      6.2750000000000021
   127   1      3.7650000000000001      6.2750000000000021      5.0200000000000014
   128   1      2.5100000000000011      5.0200000000000014      7.5300000000000002
   129   1      2.5100000000000011      6.2750000000000021      8.7850000000000001
   130   1      3.7650000000000001      5.0200000000000014      8.7850000000000001
   131   1      3.7650000000000001      6.2750000000000021      7.5300000000000002
   132   1      2.5100000000000011      5.0200000000000014      10.040000000000001
   133   1      2.5100000000000011      6.2750000000000021      11.295000000000002
   134   1      3.7650000000000001      5.0200000000000014      11.295000000000002
   135   1      3.7650000000000001      6.2750000000000021      10.040000000000001
   136   1      2.5100000000000011      5.0200000000000014      12.549999999999999
   137   1      2.5100000000000011      6.2750000000000021      13.804999999999998
   138   1      3.7650000000000001      5.0200000000000014      13.804999999999998
   139   1      3.7650000000000001      6.2750000000000021      12.549999999999999
   140   1      2.5100000000000011      5.0200000000000014                   15.06
   141   1      2.5100000000000011      6.2750000000000021      16.315000000000001
   142   1      3.7650000000000001      5.0200000000000014      16.315000000000001
   143   1      3.7650000000000001      6.2750000000000021                   15.06
   144   1      2.5100000000000011      5.0200000000000014                   17.57
   145   1      2.5100000000000011      6.2750000000000021      18.824999999999999
   146   1      3.7650000000000001      5.0200000000000014      18.824999999999999
   147   1      3.7650000000000001      6.2750000000000021                   17.57
   148   1      2.5100000000000011      5.0200000000000014      20.079999999999998
   149   1      2.5100000000000011      6.2750000000000021      21.334999999999994
   150   1      3.7650000000000001      5.0200000000000014      21.334999999999994
   151   1      3.7650000000000001      6.2750000000000021      20.079999999999998
   152   1      2.5100000000000011      5.0200000000000014                   22.59
   153   1      3.7650000000000001      6.2750000000000021                   22.59
   154   1      2.5100000000000011      7.5300000000000002      2.5100000000000011
   155   1      2.5100000000000011      8.7850000000000001      3.7650000000000001
   156   1      3.7650000000000001      7.5300000000000002      3.7650000000000001
   157   1      3.7650000000000001      8.7850000000000001      2.5100000000000011
   158   1      2.5100000000000011      7.5300000000000002      5.0200000000000014
   159   1      2.5100000000000011      8.7850000000000001      6.2750000000000021
   160   1      3.7650000000000001      7.5300000000000002      6.2750000000000021
   161   1      3.7650000000000001      8.7850000000000001      5.0200000000000014
   162   1      2.5100000000000011      7.5300000000000002      7.5300000000000002
   163   1      2.5100000000000011      8.7850000000000001      8.7850000000000001
   164   1      3.7650000000000001      7.5300000000000002      8.7850000000000001
   165   1      3.7650000000000001      8.7850000000000001      7.5300000000000002
   166   1      2.5100000000000011      7.5300000000000002      10.040000000000001
   167   1      2.5100000000000011      8.7850000000000001      11.295000000000002
   168   1      3.7650000000000001      7.5300000000000002      11.295000000000002
   169   1      3.7650000000000001      8.7850000000000001      10.040000000000001
   170   1      2.5100000000000011      7.5300000000000002      12.549999999999999
   171   1      2.5100000000000011      8.7850000000000001      13.804999999999998
   172   1      3.7650000000000001      7.5300000000000002      13.804999999999998
   173   1      3.7650000000000001      8.7850000000000001      12.549999999999999
   174   1      2.5100000000000011      7.5300000000000002                   15.06
   175   1      2.5100000000000011      8.7850000000000001      16.315000000000001
   176   1      3.7650000000000001      7.5300000000000002      16.315000000000001
   177   1      3.7650000000000001      8.7850000000000001                   15.06
   178   1      2.5100000000000011      7.5300000000000002                   17.57
   179   1      2.5100000000000011      8.7850000000000001      18.824999999999999
   180   1      3.7650000000000001      7.5300000000000002      18.824999999999999
   181   1      3.7650000000000001      8.7850000000000001                   17.57
   182   1      2.5100000000000011      7.5300000000000002      20.079999999999998
   183   1      2.5100000000000011      8.7850000000000001      21.334999999999994
   184   1      3.7650000000000001      7.5300000000000002      21.334999999999994
   185   1      3.7650000000000001      8.7850000000000001      20.079999999999998
   186   1      2.5100000000000011      7.5300000000000002                   22.59
   187   1      3.7650000000000001      8.7850000000000001                   22.59
   188   1      2.5100000000000011      10.040000000000001      2.5100000000000011
   189   1      2.5100000000000011      11.295000000000002      3.7650000000000001
   190   1      3.7650000000000001      10.040000000000001      3.7650000000000001
   191   1      3.7650000000000001      11.295000000000002      2.5100000000000011
   192   1      2.5100000000000011      10.040000000000001      5.0200000000000014
   193   1      2.5100000000000011      11.295000000000002      6.2750000000000021
   194   1      3.7650000000000001      10.040000000000001      6.2750000000000021
   195   1      3.7650000000000001      11.295000000000002      5.0200000000000014
   196   1      2.5100000000000011      10.040000000000001      7.5300000000000002
   197   1      2.5100000000000011      11.295000000000002      8.7850000000000001
   198   1      3.7650000000000001      10.040000000000001      8.7850000000000001
   199   1      3.7650000000000001      11.295000000000002      7.5300000000000002
   200   1      2.5100000000000011      10.040000000000001      10.040000000000001
   201   1      2.5100000000000011      11.295000000000002      11.295000000000002
   202   1      3.7650000000000001      10.040000000000001      11.295000000000002
   203   1      3.7650000000000001      11.295000000000002      10.040000000000001
   204   1      2.5100000000000011      10.040000000000001      12.549999999999999
   205   1      2.5100000000000011      11.295000000000002      13.804999999999998
   206   1      3.7650000000000001      10.040000000000001      13.804999999999998
   207   1      3.7650000000000001      11.295000000000002      12.549999999999999
   208   1      2.5100000000000011      10.040000000000001                   15.06
   209   1      2.5100000000000011      11.295000000000002      16.315000000000001
   210   1      3.7650000000000001      10.040000000000001      16.315000000000001
   211   1      3.7650000000000001      11.295000000000002                   15.06
   212   1      2.5100000000000011      10.040000000000001                   17.57
   213   1      2.5100000000000011      11.295000000000002      18.824999999999999
   214   1      3.7650000000000001      10.040000000000001      18.824999999999999
   215   1      3.7650000000000001      11.295000000000002                   17.57
   216   1      2.5100000000000011      10.040000000000001      20.079999999999998
   217   1      2.5100000000000011      11.295000000000002      21.334999999999994
   218   1      3.7650000000000001      10.040000000000001      21.334999999999994
   219   1      3.7650000000000001      11.295000000000002      20.079999999999998
   220   1      2.5100000000000011      10.040000000000001                   22.59
   221   1      3.7650000000000001      11.295000000000002                   22.59
   222   1      2.5100000000000011      12.549999999999999      2.5100000000000011
   223   1      2.5100000000000011      13.804999999999998      3.7650000000000001
   224   1      3.7650000000000001      12.549999999999999      3.7650000000000001
   225   1      3.7650000000000001      13.804999999999998      2.5100000000000011
   226   1      2.5100000000000011      12.549999999999999      5.0200000000000014
   227   1      2.5100000000000011      13.804999999999998      6.2750000000000021
   228   1      3.7650000000000001      12.549999999999999      6.2750000000000021
   229   1      3.7650000000000001      13.804999999999998      5.0200000000000014
   230   1      2.5100000000000011      12.549999999999999      7.5300000000000002
   231   1      2.5100000000000011      13.804999999999998      8.7850000000000001
   232   1      3.7650000000000001      12.549999999999999      8.7850000000000001
   233   1      3.7650000000000001      13.804999999999998      7.5300000000000002
   234   1      2.5100000000000011      12.549999999999999      10.040000000000001
   235   1      2.5100000000000011      13.804999999999998      11.295000000000002
   236   1      3.7650000000000001      12.549999999999999      11.295000000000002
   237   1      3.7650000000000001      13.804999999999998      10.040000000000001
   238   1      2.5100000000000011      12.549999999999999      12.549999999999999
   239   1      2.5100000000000011      13.804999999999998      13.804999999999998
   240   1      3.7650000000000001      12.549999999999999      13.804999999999998
   241   1      3.7650000000000001      13.804999999999998      12.549999999999999
   242   1      2.5100000000000011      12.549999999999999                   15.06
   243   1      2.5100000000000011      13.804999999999998      16.315000000000001
   244   1      3.7650000000000001      12.549999999999999      16.315000000000001
   245   1      3.7650000000000001      13.804999999999998                   15.06
   246   1      2.5100000000000011      12.549999999999999                   17.57
   247   1      2.5100000000000011      13.804999999999998      18.824999999999999
   248   1      3.7650000000000001      12.549999999999999      18.824999999999999
   249   1      3.7650000000000001      13.804999999999998                   17.57
   250   1      2.5100000000000011      12.549999999999999      20.079999999999998
   251   1      2.5100000000000011      13.804999999999998      21.334999999999994
   252   1      3.7650000000000001      12.549999999999999      21.334999999999994
   253   1      3.7650000000000001      13.804999999999998      20.079999999999998
   254   1      2.5100000000000011      12.549999999999999                   22.59
   255   1      3.7650000000000001      13.804999999999998                   22.59
   256   1      2.5100000000000011                   15.06      2.5100000000000011
   257   1      2.5100000000000011      16.315000000000001      3.7650000000000001
   258   1      3.7650000000000001                   15.06      3.7650000000000001
   259   1      3.7650000000000001      16.315000000000001      2.5100000000000011
   260   1      2.5100000000000011                   15.06      5.0200000000000014
   261   1      2.5100000000000011      16.315000000000001      6.2750000000000021
   262   1      3.7650000000000001                   15.06      6.2750000000000021
   263   1      3.7650000000000001      16.315000000000001      5.0200000000000014
   264   1      2.5100000000000011                   15.06      7.5300000000000002
   265   1      2.5100000000000011      16.315000000000001      8.7850000000000001
   266   1      3.7650000000000001                   15.06      8.7850000000000001
   267   1      3.7650000000000001      16.315000000000001      7.5300000000000002
   268   1      2.5100000000000011                   15.06      10.040000000000001
   269   1      2.5100000000000011      16.315000000000001      11.295000000000002
   270   1      3.7650000000000001                   15.06      11.295000000000002
   271   1      3.7650000000000001      16.315000000000001      10.040000000000001
   272   1      2.5100000000000011                   15.06      12.549999999999999
   273   1      2.5100000000000011      16.315000000000001      13.804999999999998
   274   1      3.7650000000000001                   15.06      13.804999999999998
   275   1      3.7650000000000001      16.315000000000001      12.549999999999999
   276   1      2.5100000000000011                   15.06                   15.06
   277   1      2.5100000000000011      16.315000000000001      16.315000000000001
   278   1      3.7650000000000001                   15.06      16.315000000000001
   279   1      3.7650000000000001      16.315000000000001                   15.06
   280   1      2.5100000000000011                   15.06                   17.57
   281   1      2.5100000000000011      16.315000000000001      18.824999999999999
   282   1      3.7650000000000001                   15.06      18.824999999999999
   283   1      3.7650000000000001      16.315000000000001                   17.57
   284   1      2.5100000000000011                   15.06      20.079999999999998
   285   1      2.5100000000000011      16.315000000000001      21.334999999999994
   286   1      3.7650000000000001                   15.06      21.334999999999994
   287   1      3.7650000000000001      16.315000000000001      20.079999999999998
   288   1      2.5100000000000011                   15.06                   22.59
   289   1      3.7650000000000001      16.315000000000001                   22.59
   290   1      2.5100000000000011                   17.57      2.5100000000000011
   291   1      2.5100000000000011      18.824999999999999      3.7650000000000001
   292   1      3.7650000000000001                   17.57      3.7650000000000001
   293   1      3.7650000000000001      18.824999999999999      2.5100000000000011
   294   1      2.5100000000000011                   17.57      5.0200000000000014
   295   1      2.5100000000000011      18.824999999999999      6.2750000000000021
   296   1      3.7650000000000001                   17.57      6.2750000000000021
   297   1      3.7650000000000001      18.824999999999999      5.0200000000000014
   298   1      2.5100000000000011                   17.57      7.5300000000000002
   299   1      2.5100000000000011      18.824999999999999      8.7850000000000001
   300   1      3.7650000000000001                   17.57      8.7850000000000001
   301   1      3.7650000000000001      18.824999999999999      7.5300000000000002
   302   1      2.5100000000000011                   17.57      10.040000000000001
   303   1      2.5100000000000011      18.824999999999999      11.295000000000002
   304   1      3.7650000000000001                   17.57      11.295000000000002
   305   1      3.7650000000000001      18.824999999999999      10.040000000000001
   306   1      2.5100000000000011                   17.57      12.549999999999999
   307   1      2.5100000000000011      18.824999999999999      13.804999999999998
   308   1      3.7650000000000001                   17.57      13.804999999999998
   309   1      3.7650000000000001      18.824999999999999      12.549999999999999
   310   1      2.5100000000000011                   17.57                   15.06
   311   1      2.5100000000000011      18.824999999999999      16.315000000000001
   312   1      3.7650000000000001                   17.57      16.315000000000001
   313   1      3.7650000000000001      18.824999999999999                   15.06
   314   1      2.5100000000000011                   17.57                   17.57
   315   1      2.5100000000000011      18.824999999999999      18.824999999999999
   316   1      3.7650000000000001                   17.57      18.824999999999999
   317   1      3.7650000000000001      18.824999999999999                   17.57
   318   1      2.5100000000000011                   17.57      20.079999999999998
   319   1      2.5100000000000011      18.824999999999999      21.334999999999994
   320   1      3.7650000000000001                   17.57      21.334999999999994
   321   1      3.7650000000000001      18.824999999999999      20.079999999999998
   322   1      2.5100000000000011                   17.57                   22.59
   323   1      3.7650000000000001      18.824999999999999                   22.59
   324   1      2.5100000000000011      20.079999999999998      2.5100000000000011
   325   1      2.5100000000000011      21.334999999999994      3.7650000000000001
   326   1      3.7650000000000001      20.079999999999998      3.7650000000000001
   327   1      3.7650000000000001      21.334999999999994      2.5100000000000011
   328   1      2.5100000000000011      20.079999999999998      5.0200000000000014
   329   1      2.5100000000000011      21.334999999999994      6.2750000000000021
   330   1      3.7650000000000001      20.079999999999998      6.2750000000000021
   331   1      3.7650000000000001      21.334999999999994      5.0200000000000014
   332   1      2.5100000000000011      20.079999999999998      7.5300000000000002
   333   1      2.5100000000000011      21.334999999999994      8.7850000000000001
   334   1      3.7650000000000001      20.079999999999998      8.7850000000000001
   335   1      3.7650000000000001      21.334999999999994      7.5300000000000002
   336   1      2.5100000000000011      20.079999999999998      10.040000000000001
   337   1      2.5100000000000011      21.334999999999994      11.295000000000002
   338   1      3.7650000000000001      20.079999999999998      11.295000000000002
   339   1      3.7650000000000001      21.334999999999994      10.040000000000001
   340   1      2.5100000000000011      20.079999999999998      12.549999999999999
   341   1      2.5100000000000011      21.334999999999994      13.804999999999998
   342   1      3.7650000000000001      20.079999999999998      13.804999999999998
   343   1      3.7650000000000001      21.334999999999994      12.549999999999999
   344   1      2.5100000000000011      20.079999999999998                   15.06
   345   1      2.5100000000000011      21.334999999999994      16.315000000000001
   346   1      3.7650000000000001      20.079999999999998      16.315000000000001
   347   1      3.7650000000000001      21.334999999999994                   15.06
   348   1      2.5100000000000011      20.079999999999998                   17.57
   349   1      2.5100000000000011      21.334999999999994      18.824999999999999
   350   1      3.7650000000000001      20.079999999999998      18.824999999999999
   351   1      3.7650000000000001      21.334999999999994                   17.57
   352   1      2.5100000000000011      20.079999999999998      20.079999999999998
   353   1      2.5100000000000011      21.334999999999994      21.334999999999994
   354   1      3.7650000000000001      20.079999999999998      21.334999999999994
   355   1      3.7650000000000001      21.334999999999994      20.079999999999998
   356   1      2.5100000000000011      20.079999999999998                   22.59
   357   1      3.7650000000000001      21.334999999999994                   22.59
   358   1      2.5100000000000011                   22.59      2.5100000000000011