model_files/CuNi/CuNi_30000/CuNi_544/CuNi_544_fcc_30001_temp.data (written by ASE) 

30001 	 atoms 
2  atom types
0.0                     114  xlo xhi
0.0                     114  ylo yhi
0.0                     114  zlo zhi


Atoms 

     1   1      1.7829999999999941      55.273000000000003      57.055999999999997
     2   1      1.7829999999999941      57.055999999999997      55.273000000000003
     3   1                       0      57.055999999999997      57.055999999999997
     4   1      1.7829999999999941      57.055999999999997      58.839000000000006
     5   1      1.7829999999999941      58.839000000000006      57.055999999999997
     6   1      5.3489999999999958      51.706999999999994      57.055999999999997
     7   1      3.5659999999999954      55.273000000000003      55.273000000000003
     8   1      5.3489999999999958      53.490000000000002      55.273000000000003
     9   1      5.3489999999999958      55.273000000000003      53.490000000000002
    10   1      3.5659999999999954      53.490000000000002      57.055999999999997
    11   1      3.5659999999999954      55.273000000000003      58.839000000000006
    12   1      5.3489999999999958      53.490000000000002      58.839000000000006
    13   1      5.3489999999999958      55.273000000000003      57.055999999999997
    14   1      5.3489999999999958      55.273000000000003      60.621999999999993
    15   1      5.3489999999999958      57.055999999999997      51.706999999999994
    16   1      3.5659999999999954      57.055999999999997      53.490000000000002
    17   1      3.5659999999999954      58.839000000000006      55.273000000000003
    18   1      5.3489999999999958      57.055999999999997      55.273000000000003
    19   1      5.3489999999999958      58.839000000000006      53.490000000000002
    20   1      3.5659999999999954      57.055999999999997      57.055999999999997
    21   1      3.5659999999999954      58.839000000000006      58.839000000000006
    22   1      5.3489999999999958      57.055999999999997      58.839000000000006
    23   1      5.3489999999999958      58.839000000000006      57.055999999999997
    24   1      3.5659999999999954      57.055999999999997      60.621999999999993
    25   1      5.3489999999999958      57.055999999999997      62.405000000000001
    26   1      5.3489999999999958      58.839000000000006      60.621999999999993
    27   1      5.3489999999999958      60.621999999999993      55.273000000000003
    28   1      3.5659999999999954      60.621999999999993      57.055999999999997
    29   1      5.3489999999999958      60.621999999999993      58.839000000000006
    30   1      5.3489999999999958      62.405000000000001      57.055999999999997
    31   1      8.9149999999999991      44.575000000000003      57.055999999999997
    32   1      8.9149999999999991      46.357999999999997      55.273000000000003
    33   1      8.9149999999999991      48.141000000000005      53.490000000000002
    34   1      8.9149999999999991      46.357999999999997      58.839000000000006
    35   1      8.9149999999999991      48.141000000000005      57.055999999999997
    36   1      8.9149999999999991      48.141000000000005      60.621999999999993
    37   1      8.9149999999999991      49.923999999999999      51.706999999999994
    38   1      8.9149999999999991      51.706999999999994      49.923999999999999
    39   1       7.131999999999997      51.706999999999994      55.273000000000003
    40   1      8.9149999999999991      49.923999999999999      55.273000000000003
    41   1      8.9149999999999991      51.706999999999994      53.490000000000002
    42   1       7.131999999999997      49.923999999999999      57.055999999999997
    43   1       7.131999999999997      51.706999999999994      58.839000000000006
    44   1      8.9149999999999991      49.923999999999999      58.839000000000006
    45   1      8.9149999999999991      51.706999999999994      57.055999999999997
    46   1      8.9149999999999991      49.923999999999999      62.405000000000001
    47   1      8.9149999999999991      51.706999999999994      60.621999999999993
    48   1      8.9149999999999991      51.706999999999994      64.188000000000002
    49   1      8.9149999999999991      53.490000000000002      48.141000000000005
    50   1      8.9149999999999991      55.273000000000003      46.357999999999997
    51   1       7.131999999999997      55.273000000000003      51.706999999999994
    52   1      8.9149999999999991      53.490000000000002      51.706999999999994
    53   1      8.9149999999999991      55.273000000000003      49.923999999999999
    54   1       7.131999999999997      53.490000000000002      53.490000000000002
    55   1       7.131999999999997      55.273000000000003      55.273000000000003
    56   1      8.9149999999999991      53.490000000000002      55.273000000000003
    57   1      8.9149999999999991      55.273000000000003      53.490000000000002
    58   1       7.131999999999997      53.490000000000002      57.055999999999997
    59   1       7.131999999999997      55.273000000000003      58.839000000000006
    60   1      8.9149999999999991      53.490000000000002      58.839000000000006
    61   1      8.9149999999999991      55.273000000000003      57.055999999999997
    62   1       7.131999999999997      53.490000000000002      60.621999999999993
    63   1       7.131999999999997      55.273000000000003      62.405000000000001
    64   1      8.9149999999999991      53.490000000000002      62.405000000000001
    65   1      8.9149999999999991      55.273000000000003      60.621999999999993
    66   1      8.9149999999999991      53.490000000000002      65.970999999999989
    67   1      8.9149999999999991      55.273000000000003      64.188000000000002
    68   1      8.9149999999999991      55.273000000000003      67.754000000000005
    69   1      8.9149999999999991      57.055999999999997      44.575000000000003
    70   1      8.9149999999999991      57.055999999999997      48.141000000000005
    71   1      8.9149999999999991      58.839000000000006      46.357999999999997
    72   1       7.131999999999997      57.055999999999997      49.923999999999999
    73   1       7.131999999999997      58.839000000000006      51.706999999999994
    74   1      8.9149999999999991      57.055999999999997      51.706999999999994
    75   1      8.9149999999999991      58.839000000000006      49.923999999999999
    76   1       7.131999999999997      57.055999999999997      53.490000000000002
    77   1       7.131999999999997      58.839000000000006      55.273000000000003
    78   1      8.9149999999999991      57.055999999999997      55.273000000000003
    79   1      8.9149999999999991      58.839000000000006      53.490000000000002
    80   1       7.131999999999997      57.055999999999997      57.055999999999997
    81   1       7.131999999999997      58.839000000000006      58.839000000000006
    82   1      8.9149999999999991      57.055999999999997      58.839000000000006
    83   1      8.9149999999999991      58.839000000000006      57.055999999999997
    84   1       7.131999999999997      57.055999999999997      60.621999999999993
    85   1       7.131999999999997      58.839000000000006      62.405000000000001
    86   1      8.9149999999999991      57.055999999999997      62.405000000000001
    87   1      8.9149999999999991      58.839000000000006      60.621999999999993
    88   1       7.131999999999997      57.055999999999997      64.188000000000002
    89   1      8.9149999999999991      57.055999999999997      65.970999999999989
    90   1      8.9149999999999991      58.839000000000006      64.188000000000002
    91   1      8.9149999999999991      57.055999999999997      69.537000000000006
    92   1      8.9149999999999991      58.839000000000006      67.754000000000005
    93   1      8.9149999999999991      60.621999999999993      48.141000000000005
    94   1      8.9149999999999991      60.621999999999993      51.706999999999994
    95   1      8.9149999999999991      62.405000000000001      49.923999999999999
    96   1       7.131999999999997      60.621999999999993      53.490000000000002
    97   1       7.131999999999997      62.405000000000001      55.273000000000003
    98   1      8.9149999999999991      60.621999999999993      55.273000000000003
    99   1      8.9149999999999991      62.405000000000001      53.490000000000002
   100   1       7.131999999999997      60.621999999999993      57.055999999999997
   101   1       7.131999999999997      62.405000000000001      58.839000000000006
   102   1      8.9149999999999991      60.621999999999993      58.839000000000006
   103   1      8.9149999999999991      62.405000000000001      57.055999999999997
   104   1       7.131999999999997      60.621999999999993      60.621999999999993
   105   1      8.9149999999999991      60.621999999999993      62.405000000000001
   106   1      8.9149999999999991      62.405000000000001      60.621999999999993
   107   1      8.9149999999999991      60.621999999999993      65.970999999999989
   108   1      8.9149999999999991      62.405000000000001      64.188000000000002
   109   1      8.9149999999999991      64.188000000000002      51.706999999999994
   110   1      8.9149999999999991      64.188000000000002      55.273000000000003
   111   1      8.9149999999999991      65.970999999999989      53.490000000000002
   112   1       7.131999999999997      64.188000000000002      57.055999999999997
   113   1      8.9149999999999991      64.188000000000002      58.839000000000006
   114   1      8.9149999999999991      65.970999999999989      57.055999999999997
   115   1      8.9149999999999991      64.188000000000002      62.405000000000001
   116   1      8.9149999999999991      65.970999999999989      60.621999999999993
   117   1      8.9149999999999991      67.754000000000005      55.273000000000003
   118   1      8.9149999999999991      67.754000000000005      58.839000000000006
   119   1      8.9149999999999991      69.537000000000006      57.055999999999997
   120   1      12.481000000000002      41.008999999999993      57.055999999999997
   121   1                  10.698      44.575000000000003      55.273000000000003
   122   1      12.481000000000002      42.792000000000002      55.273000000000003
   123   1      12.481000000000002      44.575000000000003      53.490000000000002
   124   1                  10.698      42.792000000000002      57.055999999999997
   125   1                  10.698      44.575000000000003      58.839000000000006
   126   1      12.481000000000002      42.792000000000002      58.839000000000006
   127   1      12.481000000000002      44.575000000000003      57.055999999999997
   128   1      12.481000000000002      44.575000000000003      60.621999999999993
   129   1                  10.698      48.141000000000005      51.706999999999994
   130   1      12.481000000000002      46.357999999999997      51.706999999999994
   131   1      12.481000000000002      48.141000000000005      49.923999999999999
   132   1                  10.698      46.357999999999997      53.490000000000002
   133   1                  10.698      48.141000000000005      55.273000000000003
   134   1      12.481000000000002      46.357999999999997      55.273000000000003
   135   1      12.481000000000002      48.141000000000005      53.490000000000002
   136   1                  10.698      46.357999999999997      57.055999999999997
   137   1                  10.698      48.141000000000005      58.839000000000006
   138   1      12.481000000000002      46.357999999999997      58.839000000000006
   139   1      12.481000000000002      48.141000000000005      57.055999999999997
   140   1                  10.698      46.357999999999997      60.621999999999993
   141   1                  10.698      48.141000000000005      62.405000000000001
   142   1      12.481000000000002      46.357999999999997      62.405000000000001
   143   1      12.481000000000002      48.141000000000005      60.621999999999993
   144   1      12.481000000000002      48.141000000000005      64.188000000000002
   145   1                  10.698      51.706999999999994      48.141000000000005
   146   1      12.481000000000002      49.923999999999999      48.141000000000005
   147   1      12.481000000000002      51.706999999999994      46.357999999999997
   148   1                  10.698      49.923999999999999      49.923999999999999
   149   1                  10.698      51.706999999999994      51.706999999999994
   150   1      12.481000000000002      49.923999999999999      51.706999999999994
   151   1      12.481000000000002      51.706999999999994      49.923999999999999
   152   1                  10.698      49.923999999999999      53.490000000000002
   153   1                  10.698      51.706999999999994      55.273000000000003
   154   1      12.481000000000002      49.923999999999999      55.273000000000003
   155   1      12.481000000000002      51.706999999999994      53.490000000000002
   156   1                  10.698      49.923999999999999      57.055999999999997
   157   1                  10.698      51.706999999999994      58.839000000000006
   158   1      12.481000000000002      49.923999999999999      58.839000000000006
   159   1      12.481000000000002      51.706999999999994      57.055999999999997
   160   1                  10.698      49.923999999999999      60.621999999999993
   161   1                  10.698      51.706999999999994      62.405000000000001
   162   1      12.481000000000002      49.923999999999999      62.405000000000001
   163   1      12.481000000000002      51.706999999999994      60.621999999999993
   164   1                  10.698      49.923999999999999      64.188000000000002
   165   1                  10.698      51.706999999999994      65.970999999999989
   166   1      12.481000000000002      49.923999999999999      65.970999999999989
   167   1      12.481000000000002      51.706999999999994      64.188000000000002
   168   1      12.481000000000002      51.706999999999994      67.754000000000005
   169   1                  10.698      55.273000000000003      44.575000000000003
   170   1      12.481000000000002      53.490000000000002      44.575000000000003
   171   1      12.481000000000002      55.273000000000003      42.792000000000002
   172   1                  10.698      53.490000000000002      46.357999999999997
   173   1                  10.698      55.273000000000003      48.141000000000005
   174   1      12.481000000000002      53.490000000000002      48.141000000000005
   175   1      12.481000000000002      55.273000000000003      46.357999999999997
   176   1                  10.698      53.490000000000002      49.923999999999999
   177   1                  10.698      55.273000000000003      51.706999999999994
   178   1      12.481000000000002      53.490000000000002      51.706999999999994
   179   1      12.481000000000002      55.273000000000003      49.923999999999999
   180   1                  10.698      53.490000000000002      53.490000000000002
   181   1                  10.698      55.273000000000003      55.273000000000003
   182   1      12.481000000000002      53.490000000000002      55.273000000000003
   183   1      12.481000000000002      55.273000000000003      53.490000000000002
   184   1                  10.698      53.490000000000002      57.055999999999997
   185   1                  10.698      55.273000000000003      58.839000000000006
   186   1      12.481000000000002      53.490000000000002      58.839000000000006
   187   1      12.481000000000002      55.273000000000003      57.055999999999997
   188   1                  10.698      53.490000000000002      60.621999999999993
   189   1                  10.698      55.273000000000003      62.405000000000001
   190   1      12.481000000000002      53.490000000000002      62.405000000000001
   191   1      12.481000000000002      55.273000000000003      60.621999999999993
   192   1                  10.698      53.490000000000002      64.188000000000002
   193   1                  10.698      55.273000000000003      65.970999999999989
   194   1      12.481000000000002      53.490000000000002      65.970999999999989
   195   1      12.481000000000002      55.273000000000003      64.188000000000002
   196   1                  10.698      53.490000000000002      67.754000000000005
   197   1                  10.698      55.273000000000003      69.537000000000006
   198   1      12.481000000000002      53.490000000000002      69.537000000000006
   199   1      12.481000000000002      55.273000000000003      67.754000000000005
   200   1      12.481000000000002      55.273000000000003      71.319999999999993
   201   1      12.481000000000002      57.055999999999997      41.008999999999993
   202   1                  10.698      57.055999999999997      42.792000000000002
   203   1                  10.698      58.839000000000006      44.575000000000003
   204   1      12.481000000000002      57.055999999999997      44.575000000000003
   205   1      12.481000000000002      58.839000000000006      42.792000000000002
   206   1                  10.698      57.055999999999997      46.357999999999997
   207   1                  10.698      58.839000000000006      48.141000000000005
   208   1      12.481000000000002      57.055999999999997      48.141000000000005
   209   1      12.481000000000002      58.839000000000006      46.357999999999997
   210   1                  10.698      57.055999999999997      49.923999999999999
   211   1                  10.698      58.839000000000006      51.706999999999994
   212   1      12.481000000000002      57.055999999999997      51.706999999999994
   213   1      12.481000000000002      58.839000000000006      49.923999999999999
   214   1                  10.698      57.055999999999997      53.490000000000002
   215   1                  10.698      58.839000000000006      55.273000000000003
   216   1      12.481000000000002      57.055999999999997      55.273000000000003
   217   1      12.481000000000002      58.839000000000006      53.490000000000002
   218   1                  10.698      57.055999999999997      57.055999999999997
   219   1                  10.698      58.839000000000006      58.839000000000006
   220   1      12.481000000000002      57.055999999999997      58.839000000000006
   221   1      12.481000000000002      58.839000000000006      57.055999999999997
   222   1                  10.698      57.055999999999997      60.621999999999993
   223   1                  10.698      58.839000000000006      62.405000000000001
   224   1      12.481000000000002      57.055999999999997      62.405000000000001
   225   1      12.481000000000002      58.839000000000006      60.621999999999993
   226   1                  10.698      57.055999999999997      64.188000000000002
   227   1                  10.698      58.839000000000006      65.970999999999989
   228   1      12.481000000000002      57.055999999999997      65.970999999999989
   229   1      12.481000000000002      58.839000000000006      64.188000000000002
   230   1                  10.698      57.055999999999997      67.754000000000005
   231   1                  10.698      58.839000000000006      69.537000000000006
   232   1      12.481000000000002      57.055999999999997      69.537000000000006
   233   1      12.481000000000002      58.839000000000006      67.754000000000005
   234   1                  10.698      57.055999999999997      71.319999999999993
   235   1      12.481000000000002      57.055999999999997      73.103000000000009
   236   1      12.481000000000002      58.839000000000006      71.319999999999993
   237   1      12.481000000000002      60.621999999999993      44.575000000000003
   238   1                  10.698      60.621999999999993      46.357999999999997
   239   1                  10.698      62.405000000000001      48.141000000000005
   240   1      12.481000000000002      60.621999999999993      48.141000000000005
   241   1      12.481000000000002      62.405000000000001      46.357999999999997
   242   1                  10.698      60.621999999999993      49.923999999999999
   243   1                  10.698      62.405000000000001      51.706999999999994
   244   1      12.481000000000002      60.621999999999993      51.706999999999994
   245   1      12.481000000000002      62.405000000000001      49.923999999999999
   246   1                  10.698      60.621999999999993      53.490000000000002
   247   1                  10.698      62.405000000000001      55.273000000000003
   248   1      12.481000000000002      60.621999999999993      55.273000000000003
   249   1      12.481000000000002      62.405000000000001      53.490000000000002
   250   1                  10.698      60.621999999999993      57.055999999999997
   251   1                  10.698      62.405000000000001      58.839000000000006
   252   1      12.481000000000002      60.621999999999993      58.839000000000006
   253   1      12.481000000000002      62.405000000000001      57.055999999999997
   254   1                  10.698      60.621999999999993      60.621999999999993
   255   1                  10.698      62.405000000000001      62.405000000000001
   256   1      12.481000000000002      60.621999999999993      62.405000000000001
   257   1      12.481000000000002      62.405000000000001      60.621999999999993
   258   1                  10.698      60.621999999999993      64.188000000000002
   259   1                  10.698      62.405000000000001      65.970999999999989
   260   1      12.481000000000002      60.621999999999993      65.970999999999989
   261   1      12.481000000000002      62.405000000000001      64.188000000000002
   262   1                  10.698      60.621999999999993      67.754000000000005
   263   1      12.481000000000002      60.621999999999993      69.537000000000006
   264   1      12.481000000000002      62.405000000000001      67.754000000000005
   265   1      12.481000000000002      64.188000000000002      48.141000000000005
   266   1                  10.698      64.188000000000002      49.923999999999999
   267   1                  10.698      65.970999999999989      51.706999999999994
   268   1      12.481000000000002      64.188000000000002      51.706999999999994
   269   1      12.481000000000002      65.970999999999989      49.923999999999999
   270   1                  10.698      64.188000000000002      53.490000000000002
   271   1                  10.698      65.970999999999989      55.273000000000003
   272   1      12.481000000000002      64.188000000000002      55.273000000000003
   273   1      12.481000000000002      65.970999999999989      53.490000000000002
   274   1                  10.698      64.188000000000002      57.055999999999997
   275   1                  10.698      65.970999999999989      58.839000000000006
   276   1      12.481000000000002      64.188000000000002      58.839000000000006
   277   1      12.481000000000002      65.970999999999989      57.055999999999997
   278   1                  10.698      64.188000000000002      60.621999999999993
   279   1                  10.698      65.970999999999989      62.405000000000001
   280   1      12.481000000000002      64.188000000000002      62.405000000000001
   281   1      12.481000000000002      65.970999999999989      60.621999999999993
   282   1                  10.698      64.188000000000002      64.188000000000002
   283   1      12.481000000000002      64.188000000000002      65.970999999999989
   284   1      12.481000000000002      65.970999999999989      64.188000000000002
   285   1      12.481000000000002      67.754000000000005      51.706999999999994
   286   1                  10.698      67.754000000000005      53.490000000000002
   287   1                  10.698      69.537000000000006      55.273000000000003
   288   1      12.481000000000002      67.754000000000005      55.273000000000003
   289   1      12.481000000000002      69.537000000000006      53.490000000000002
   290   1                  10.698      67.754000000000005      57.055999999999997
   291   1                  10.698      69.537000000000006      58.839000000000006
   292   1      12.481000000000002      67.754000000000005      58.839000000000006
   293   1      12.481000000000002      69.537000000000006      57.055999999999997
   294   1                  10.698      67.754000000000005      60.621999999999993
   295   1      12.481000000000002      67.754000000000005      62.405000000000001
   296   1      12.481000000000002      69.537000000000006      60.621999999999993
   297   1      12.481000000000002      71.319999999999993      55.273000000000003
   298   1                  10.698      71.319999999999993      57.055999999999997
   299   1      12.481000000000002      71.319999999999993      58.839000000000006
   300   1      12.481000000000002      73.103000000000009      57.055999999999997
   301   1      16.047000000000004      37.443000000000005      57.055999999999997
   302   1      14.264000000000003      41.008999999999993      55.273000000000003
   303   1      16.047000000000004      39.225999999999999      55.273000000000003
   304   1      16.047000000000004      41.008999999999993      53.490000000000002
   305   1      14.264000000000003      39.225999999999999      57.055999999999997
   306   1      14.264000000000003      41.008999999999993      58.839000000000006
   307   1      16.047000000000004      39.225999999999999      58.839000000000006
   308   1      16.047000000000004      41.008999999999993      57.055999999999997
   309   1      16.047000000000004      41.008999999999993      60.621999999999993
   310   1      14.264000000000003      44.575000000000003      51.706999999999994
   311   1      16.047000000000004      42.792000000000002      51.706999999999994
   312   1      16.047000000000004      44.575000000000003      49.923999999999999
   313   1      14.264000000000003      42.792000000000002      53.490000000000002
   314   1      14.264000000000003      44.575000000000003      55.273000000000003
   315   1      16.047000000000004      42.792000000000002      55.273000000000003
   316   1      16.047000000000004      44.575000000000003      53.490000000000002
   317   1      14.264000000000003      42.792000000000002      57.055999999999997
   318   1      14.264000000000003      44.575000000000003      58.839000000000006
   319   1      16.047000000000004      42.792000000000002      58.839000000000006
   320   1      16.047000000000004      44.575000000000003      57.055999999999997
   321   1      14.264000000000003      42.792000000000002      60.621999999999993
   322   1      14.264000000000003      44.575000000000003      62.405000000000001
   323   1      16.047000000000004      42.792000000000002      62.405000000000001
   324   1      16.047000000000004      44.575000000000003      60.621999999999993
   325   1      16.047000000000004      44.575000000000003      64.188000000000002
   326   1      14.264000000000003      48.141000000000005      48.141000000000005
   327   1      16.047000000000004      46.357999999999997      48.141000000000005
   328   1      16.047000000000004      48.141000000000005      46.357999999999997
   329   1      14.264000000000003      46.357999999999997      49.923999999999999
   330   1      14.264000000000003      48.141000000000005      51.706999999999994
   331   1      16.047000000000004      46.357999999999997      51.706999999999994
   332   1      16.047000000000004      48.141000000000005      49.923999999999999
   333   1      14.264000000000003      46.357999999999997      53.490000000000002
   334   1      14.264000000000003      48.141000000000005      55.273000000000003
   335   1      16.047000000000004      46.357999999999997      55.273000000000003
   336   1      16.047000000000004      48.141000000000005      53.490000000000002
   337   1      14.264000000000003      46.357999999999997      57.055999999999997
   338   1      14.264000000000003      48.141000000000005      58.839000000000006
   339   1      16.047000000000004      46.357999999999997      58.839000000000006
   340   1      16.047000000000004      48.141000000000005      57.055999999999997
   341   1      14.264000000000003      46.357999999999997      60.621999999999993
   342   1      14.264000000000003      48.141000000000005      62.405000000000001
   343   1      16.047000000000004      46.357999999999997      62.405000000000001
   344   1      16.047000000000004      48.141000000000005      60.621999999999993
   345   1      14.264000000000003      46.357999999999997      64.188000000000002
   346   1      14.264000000000003      48.141000000000005      65.970999999999989
   347   1      16.047000000000004      46.357999999999997      65.970999999999989
   348   1      16.047000000000004      48.141000000000005      64.188000000000002
   349   1      16.047000000000004      48.141000000000005      67.754000000000005
   350   1      14.264000000000003      51.706999999999994      44.575000000000003
   351   1      16.047000000000004      49.923999999999999      44.575000000000003
   352   1      16.047000000000004      51.706999999999994      42.792000000000002
   353   1      14.264000000000003      49.923999999999999      46.357999999999997
   354   1      14.264000000000003      51.706999999999994      48.141000000000005
   355   1      16.047000000000004      49.923999999999999      48.141000000000005
   356   1      16.047000000000004      51.706999999999994      46.357999999999997
   357   1      14.264000000000003      49.923999999999999      49.923999999999999
   358   1      14.264000000000003      51.706999999999994      51.706999999999994