model_files/CuAu/CuAu_30000/CuAu_331/CuAu_331_fcc_30729_temp.data (written by ASE) 

30729 	 atoms 
2  atom types
0.0                     121  xlo xhi
0.0                     121  ylo yhi
0.0                     121  zlo zhi


Atoms 

     1   1      1.8699999999999903      57.969999999999992      59.839999999999996
     2   1      1.8699999999999903      59.839999999999996      57.969999999999992
     3   1      120.99999999999999      59.839999999999996      59.839999999999996
     4   1      1.8699999999999903      59.839999999999996      61.710000000000001
     5   1      1.8699999999999903      61.710000000000001      59.839999999999996
     6   1      5.6099999999999923       54.22999999999999      56.100000000000001
     7   1      5.6099999999999923       54.22999999999999      59.839999999999996
     8   1      5.6099999999999923       54.22999999999999      63.580000000000005
     9   1      5.6099999999999923      56.100000000000001       54.22999999999999
    10   1      3.7399999999999878      56.100000000000001      56.100000000000001
    11   1      3.7399999999999878      57.969999999999992      57.969999999999992
    12   1      5.6099999999999923      56.100000000000001      57.969999999999992
    13   1      5.6099999999999923      57.969999999999992      56.100000000000001
    14   1      3.7399999999999878      56.100000000000001      59.839999999999996
    15   1      3.7399999999999878      57.969999999999992      61.710000000000001
    16   1      5.6099999999999923      56.100000000000001      61.710000000000001
    17   1      5.6099999999999923      57.969999999999992      59.839999999999996
    18   1      3.7399999999999878      56.100000000000001      63.580000000000005
    19   1      5.6099999999999923      56.100000000000001      65.450000000000003
    20   1      5.6099999999999923      57.969999999999992      63.580000000000005
    21   1      5.6099999999999923      59.839999999999996       54.22999999999999
    22   1      3.7399999999999878      59.839999999999996      56.100000000000001
    23   1      3.7399999999999878      61.710000000000001      57.969999999999992
    24   1      5.6099999999999923      59.839999999999996      57.969999999999992
    25   1      5.6099999999999923      61.710000000000001      56.100000000000001
    26   1      3.7399999999999878      59.839999999999996      59.839999999999996
    27   1      3.7399999999999878      61.710000000000001      61.710000000000001
    28   1      5.6099999999999923      59.839999999999996      61.710000000000001
    29   1      5.6099999999999923      61.710000000000001      59.839999999999996
    30   1      3.7399999999999878      59.839999999999996      63.580000000000005
    31   1      5.6099999999999923      59.839999999999996      65.450000000000003
    32   1      5.6099999999999923      61.710000000000001      63.580000000000005
    33   1      5.6099999999999923      63.580000000000005       54.22999999999999
    34   1      3.7399999999999878      63.580000000000005      56.100000000000001
    35   1      5.6099999999999923      63.580000000000005      57.969999999999992
    36   1      5.6099999999999923      65.450000000000003      56.100000000000001
    37   1      3.7399999999999878      63.580000000000005      59.839999999999996
    38   1      5.6099999999999923      63.580000000000005      61.710000000000001
    39   1      5.6099999999999923      65.450000000000003      59.839999999999996
    40   1      3.7399999999999878      63.580000000000005      63.580000000000005
    41   1      5.6099999999999923      63.580000000000005      65.450000000000003
    42   1      5.6099999999999923      65.450000000000003      63.580000000000005
    43   1      9.3499999999999872      50.489999999999988      56.100000000000001
    44   1      9.3499999999999872      50.489999999999988      59.839999999999996
    45   1      9.3499999999999872      50.489999999999988      63.580000000000005
    46   1      7.4799999999999907       54.22999999999999       54.22999999999999
    47   1      9.3499999999999872      52.359999999999992       54.22999999999999
    48   1      9.3499999999999872       54.22999999999999      52.359999999999992
    49   1      7.4799999999999907      52.359999999999992      56.100000000000001
    50   1      7.4799999999999907       54.22999999999999      57.969999999999992
    51   1      9.3499999999999872      52.359999999999992      57.969999999999992
    52   1      9.3499999999999872       54.22999999999999      56.100000000000001
    53   1      7.4799999999999907      52.359999999999992      59.839999999999996
    54   1      7.4799999999999907       54.22999999999999      61.710000000000001
    55   1      9.3499999999999872      52.359999999999992      61.710000000000001
    56   1      9.3499999999999872       54.22999999999999      59.839999999999996
    57   1      7.4799999999999907      52.359999999999992      63.580000000000005
    58   1      7.4799999999999907       54.22999999999999      65.450000000000003
    59   1      9.3499999999999872      52.359999999999992      65.450000000000003
    60   1      9.3499999999999872       54.22999999999999      63.580000000000005
    61   1      9.3499999999999872       54.22999999999999      67.319999999999993
    62   1      9.3499999999999872      56.100000000000001      50.489999999999988
    63   1      7.4799999999999907      56.100000000000001      52.359999999999992
    64   1      7.4799999999999907      57.969999999999992       54.22999999999999
    65   1      9.3499999999999872      56.100000000000001       54.22999999999999
    66   1      9.3499999999999872      57.969999999999992      52.359999999999992
    67   1      7.4799999999999907      56.100000000000001      56.100000000000001
    68   1      7.4799999999999907      57.969999999999992      57.969999999999992
    69   1      9.3499999999999872      56.100000000000001      57.969999999999992
    70   1      9.3499999999999872      57.969999999999992      56.100000000000001
    71   1      7.4799999999999907      56.100000000000001      59.839999999999996
    72   1      7.4799999999999907      57.969999999999992      61.710000000000001
    73   1      9.3499999999999872      56.100000000000001      61.710000000000001
    74   1      9.3499999999999872      57.969999999999992      59.839999999999996
    75   1      7.4799999999999907      56.100000000000001      63.580000000000005
    76   1      7.4799999999999907      57.969999999999992      65.450000000000003
    77   1      9.3499999999999872      56.100000000000001      65.450000000000003
    78   1      9.3499999999999872      57.969999999999992      63.580000000000005
    79   1      7.4799999999999907      56.100000000000001      67.319999999999993
    80   1      9.3499999999999872      56.100000000000001      69.189999999999998
    81   1      9.3499999999999872      57.969999999999992      67.319999999999993
    82   1      9.3499999999999872      59.839999999999996      50.489999999999988
    83   1      7.4799999999999907      59.839999999999996      52.359999999999992
    84   1      7.4799999999999907      61.710000000000001       54.22999999999999
    85   1      9.3499999999999872      59.839999999999996       54.22999999999999
    86   1      9.3499999999999872      61.710000000000001      52.359999999999992
    87   1      7.4799999999999907      59.839999999999996      56.100000000000001
    88   1      7.4799999999999907      61.710000000000001      57.969999999999992
    89   1      9.3499999999999872      59.839999999999996      57.969999999999992
    90   1      9.3499999999999872      61.710000000000001      56.100000000000001
    91   1      7.4799999999999907      59.839999999999996      59.839999999999996
    92   1      7.4799999999999907      61.710000000000001      61.710000000000001
    93   1      9.3499999999999872      59.839999999999996      61.710000000000001
    94   1      9.3499999999999872      61.710000000000001      59.839999999999996
    95   1      7.4799999999999907      59.839999999999996      63.580000000000005
    96   1      7.4799999999999907      61.710000000000001      65.450000000000003
    97   1      9.3499999999999872      59.839999999999996      65.450000000000003
    98   1      9.3499999999999872      61.710000000000001      63.580000000000005
    99   1      7.4799999999999907      59.839999999999996      67.319999999999993
   100   1      9.3499999999999872      59.839999999999996      69.189999999999998
   101   1      9.3499999999999872      61.710000000000001      67.319999999999993
   102   1      9.3499999999999872      63.580000000000005      50.489999999999988
   103   1      7.4799999999999907      63.580000000000005      52.359999999999992
   104   1      7.4799999999999907      65.450000000000003       54.22999999999999
   105   1      9.3499999999999872      63.580000000000005       54.22999999999999
   106   1      9.3499999999999872      65.450000000000003      52.359999999999992
   107   1      7.4799999999999907      63.580000000000005      56.100000000000001
   108   1      7.4799999999999907      65.450000000000003      57.969999999999992
   109   1      9.3499999999999872      63.580000000000005      57.969999999999992
   110   1      9.3499999999999872      65.450000000000003      56.100000000000001
   111   1      7.4799999999999907      63.580000000000005      59.839999999999996
   112   1      7.4799999999999907      65.450000000000003      61.710000000000001
   113   1      9.3499999999999872      63.580000000000005      61.710000000000001
   114   1      9.3499999999999872      65.450000000000003      59.839999999999996
   115   1      7.4799999999999907      63.580000000000005      63.580000000000005
   116   1      7.4799999999999907      65.450000000000003      65.450000000000003
   117   1      9.3499999999999872      63.580000000000005      65.450000000000003
   118   1      9.3499999999999872      65.450000000000003      63.580000000000005
   119   1      7.4799999999999907      63.580000000000005      67.319999999999993
   120   1      9.3499999999999872      63.580000000000005      69.189999999999998
   121   1      9.3499999999999872      65.450000000000003      67.319999999999993
   122   1      9.3499999999999872      67.319999999999993       54.22999999999999
   123   1      7.4799999999999907      67.319999999999993      56.100000000000001
   124   1      9.3499999999999872      67.319999999999993      57.969999999999992
   125   1      9.3499999999999872      69.189999999999998      56.100000000000001
   126   1      7.4799999999999907      67.319999999999993      59.839999999999996
   127   1      9.3499999999999872      67.319999999999993      61.710000000000001
   128   1      9.3499999999999872      69.189999999999998      59.839999999999996
   129   1      7.4799999999999907      67.319999999999993      63.580000000000005
   130   1      9.3499999999999872      67.319999999999993      65.450000000000003
   131   1      9.3499999999999872      69.189999999999998      63.580000000000005
   132   1      13.089999999999996      46.749999999999993      56.100000000000001
   133   1      13.089999999999996      46.749999999999993      59.839999999999996
   134   1      13.089999999999996      46.749999999999993      63.580000000000005
   135   1      11.219999999999992      50.489999999999988      50.489999999999988
   136   1      13.089999999999996       48.61999999999999      50.489999999999988
   137   1      13.089999999999996      50.489999999999988       48.61999999999999
   138   1      11.219999999999992      50.489999999999988       54.22999999999999
   139   1      13.089999999999996       48.61999999999999       54.22999999999999
   140   1      13.089999999999996      50.489999999999988      52.359999999999992
   141   1      11.219999999999992       48.61999999999999      56.100000000000001
   142   1      11.219999999999992      50.489999999999988      57.969999999999992
   143   1      13.089999999999996       48.61999999999999      57.969999999999992
   144   1      13.089999999999996      50.489999999999988      56.100000000000001
   145   1      11.219999999999992       48.61999999999999      59.839999999999996
   146   1      11.219999999999992      50.489999999999988      61.710000000000001
   147   1      13.089999999999996       48.61999999999999      61.710000000000001
   148   1      13.089999999999996      50.489999999999988      59.839999999999996
   149   1      11.219999999999992       48.61999999999999      63.580000000000005
   150   1      11.219999999999992      50.489999999999988      65.450000000000003
   151   1      13.089999999999996       48.61999999999999      65.450000000000003
   152   1      13.089999999999996      50.489999999999988      63.580000000000005
   153   1      11.219999999999992      50.489999999999988      69.189999999999998
   154   1      13.089999999999996       48.61999999999999      69.189999999999998
   155   1      13.089999999999996      50.489999999999988      67.319999999999993
   156   1      13.089999999999996      50.489999999999988      71.060000000000002
   157   1      11.219999999999992       54.22999999999999      50.489999999999988
   158   1      13.089999999999996      52.359999999999992      50.489999999999988
   159   1      13.089999999999996       54.22999999999999       48.61999999999999
   160   1      11.219999999999992      52.359999999999992      52.359999999999992
   161   1      11.219999999999992       54.22999999999999       54.22999999999999
   162   1      13.089999999999996      52.359999999999992       54.22999999999999
   163   1      13.089999999999996       54.22999999999999      52.359999999999992
   164   1      11.219999999999992      52.359999999999992      56.100000000000001
   165   1      11.219999999999992       54.22999999999999      57.969999999999992
   166   1      13.089999999999996      52.359999999999992      57.969999999999992
   167   1      13.089999999999996       54.22999999999999      56.100000000000001
   168   1      11.219999999999992      52.359999999999992      59.839999999999996
   169   1      11.219999999999992       54.22999999999999      61.710000000000001
   170   1      13.089999999999996      52.359999999999992      61.710000000000001
   171   1      13.089999999999996       54.22999999999999      59.839999999999996
   172   1      11.219999999999992      52.359999999999992      63.580000000000005
   173   1      11.219999999999992       54.22999999999999      65.450000000000003
   174   1      13.089999999999996      52.359999999999992      65.450000000000003
   175   1      13.089999999999996       54.22999999999999      63.580000000000005
   176   1      11.219999999999992      52.359999999999992      67.319999999999993
   177   1      11.219999999999992       54.22999999999999      69.189999999999998
   178   1      13.089999999999996      52.359999999999992      69.189999999999998
   179   1      13.089999999999996       54.22999999999999      67.319999999999993
   180   1      13.089999999999996       54.22999999999999      71.060000000000002
   181   1      13.089999999999996      56.100000000000001      46.749999999999993
   182   1      11.219999999999992      56.100000000000001       48.61999999999999
   183   1      11.219999999999992      57.969999999999992      50.489999999999988
   184   1      13.089999999999996      56.100000000000001      50.489999999999988
   185   1      13.089999999999996      57.969999999999992       48.61999999999999
   186   1      11.219999999999992      56.100000000000001      52.359999999999992
   187   1      11.219999999999992      57.969999999999992       54.22999999999999
   188   1      13.089999999999996      56.100000000000001       54.22999999999999
   189   1      13.089999999999996      57.969999999999992      52.359999999999992
   190   1      11.219999999999992      56.100000000000001      56.100000000000001
   191   1      11.219999999999992      57.969999999999992      57.969999999999992
   192   1      13.089999999999996      56.100000000000001      57.969999999999992
   193   1      13.089999999999996      57.969999999999992      56.100000000000001
   194   1      11.219999999999992      56.100000000000001      59.839999999999996
   195   1      11.219999999999992      57.969999999999992      61.710000000000001
   196   1      13.089999999999996      56.100000000000001      61.710000000000001
   197   1      13.089999999999996      57.969999999999992      59.839999999999996
   198   1      11.219999999999992      56.100000000000001      63.580000000000005
   199   1      11.219999999999992      57.969999999999992      65.450000000000003
   200   1      13.089999999999996      56.100000000000001      65.450000000000003
   201   1      13.089999999999996      57.969999999999992      63.580000000000005
   202   1      11.219999999999992      56.100000000000001      67.319999999999993
   203   1      11.219999999999992      57.969999999999992      69.189999999999998
   204   1      13.089999999999996      56.100000000000001      69.189999999999998
   205   1      13.089999999999996      57.969999999999992      67.319999999999993
   206   1      11.219999999999992      56.100000000000001      71.060000000000002
   207   1      13.089999999999996      56.100000000000001      72.930000000000007
   208   1      13.089999999999996      57.969999999999992      71.060000000000002
   209   1      13.089999999999996      59.839999999999996      46.749999999999993
   210   1      11.219999999999992      59.839999999999996       48.61999999999999
   211   1      11.219999999999992      61.710000000000001      50.489999999999988
   212   1      13.089999999999996      59.839999999999996      50.489999999999988
   213   1      13.089999999999996      61.710000000000001       48.61999999999999
   214   1      11.219999999999992      59.839999999999996      52.359999999999992
   215   1      11.219999999999992      61.710000000000001       54.22999999999999
   216   1      13.089999999999996      59.839999999999996       54.22999999999999
   217   1      13.089999999999996      61.710000000000001      52.359999999999992
   218   1      11.219999999999992      59.839999999999996      56.100000000000001
   219   1      11.219999999999992      61.710000000000001      57.969999999999992
   220   1      13.089999999999996      59.839999999999996      57.969999999999992
   221   1      13.089999999999996      61.710000000000001      56.100000000000001
   222   1      11.219999999999992      59.839999999999996      59.839999999999996
   223   1      11.219999999999992      61.710000000000001      61.710000000000001
   224   1      13.089999999999996      59.839999999999996      61.710000000000001
   225   1      13.089999999999996      61.710000000000001      59.839999999999996
   226   1      11.219999999999992      59.839999999999996      63.580000000000005
   227   1      11.219999999999992      61.710000000000001      65.450000000000003
   228   1      13.089999999999996      59.839999999999996      65.450000000000003
   229   1      13.089999999999996      61.710000000000001      63.580000000000005
   230   1      11.219999999999992      59.839999999999996      67.319999999999993
   231   1      11.219999999999992      61.710000000000001      69.189999999999998
   232   1      13.089999999999996      59.839999999999996      69.189999999999998
   233   1      13.089999999999996      61.710000000000001      67.319999999999993
   234   1      11.219999999999992      59.839999999999996      71.060000000000002
   235   1      13.089999999999996      59.839999999999996      72.930000000000007
   236   1      13.089999999999996      61.710000000000001      71.060000000000002
   237   1      13.089999999999996      63.580000000000005      46.749999999999993
   238   1      11.219999999999992      63.580000000000005       48.61999999999999
   239   1      11.219999999999992      65.450000000000003      50.489999999999988
   240   1      13.089999999999996      63.580000000000005      50.489999999999988
   241   1      13.089999999999996      65.450000000000003       48.61999999999999
   242   1      11.219999999999992      63.580000000000005      52.359999999999992
   243   1      11.219999999999992      65.450000000000003       54.22999999999999
   244   1      13.089999999999996      63.580000000000005       54.22999999999999
   245   1      13.089999999999996      65.450000000000003      52.359999999999992
   246   1      11.219999999999992      63.580000000000005      56.100000000000001
   247   1      11.219999999999992      65.450000000000003      57.969999999999992
   248   1      13.089999999999996      63.580000000000005      57.969999999999992
   249   1      13.089999999999996      65.450000000000003      56.100000000000001
   250   1      11.219999999999992      63.580000000000005      59.839999999999996
   251   1      11.219999999999992      65.450000000000003      61.710000000000001
   252   1      13.089999999999996      63.580000000000005      61.710000000000001
   253   1      13.089999999999996      65.450000000000003      59.839999999999996
   254   1      11.219999999999992      63.580000000000005      63.580000000000005
   255   1      11.219999999999992      65.450000000000003      65.450000000000003
   256   1      13.089999999999996      63.580000000000005      65.450000000000003
   257   1      13.089999999999996      65.450000000000003      63.580000000000005
   258   1      11.219999999999992      63.580000000000005      67.319999999999993
   259   1      11.219999999999992      65.450000000000003      69.189999999999998
   260   1      13.089999999999996      63.580000000000005      69.189999999999998
   261   1      13.089999999999996      65.450000000000003      67.319999999999993
   262   1      11.219999999999992      63.580000000000005      71.060000000000002
   263   1      13.089999999999996      63.580000000000005      72.930000000000007
   264   1      13.089999999999996      65.450000000000003      71.060000000000002
   265   1      11.219999999999992      69.189999999999998      50.489999999999988
   266   1      13.089999999999996      67.319999999999993      50.489999999999988
   267   1      13.089999999999996      69.189999999999998       48.61999999999999
   268   1      11.219999999999992      67.319999999999993      52.359999999999992
   269   1      11.219999999999992      69.189999999999998       54.22999999999999
   270   1      13.089999999999996      67.319999999999993       54.22999999999999
   271   1      13.089999999999996      69.189999999999998      52.359999999999992
   272   1      11.219999999999992      67.319999999999993      56.100000000000001
   273   1      11.219999999999992      69.189999999999998      57.969999999999992
   274   1      13.089999999999996      67.319999999999993      57.969999999999992
   275   1      13.089999999999996      69.189999999999998      56.100000000000001
   276   1      11.219999999999992      67.319999999999993      59.839999999999996
   277   1      11.219999999999992      69.189999999999998      61.710000000000001
   278   1      13.089999999999996      67.319999999999993      61.710000000000001
   279   1      13.089999999999996      69.189999999999998      59.839999999999996
   280   1      11.219999999999992      67.319999999999993      63.580000000000005
   281   1      11.219999999999992      69.189999999999998      65.450000000000003
   282   1      13.089999999999996      67.319999999999993      65.450000000000003
   283   1      13.089999999999996      69.189999999999998      63.580000000000005
   284   1      11.219999999999992      67.319999999999993      67.319999999999993
   285   1      11.219999999999992      69.189999999999998      69.189999999999998
   286   1      13.089999999999996      67.319999999999993      69.189999999999998
   287   1      13.089999999999996      69.189999999999998      67.319999999999993
   288   1      13.089999999999996      69.189999999999998      71.060000000000002
   289   1      13.089999999999996      71.060000000000002      50.489999999999988
   290   1      13.089999999999996      71.060000000000002       54.22999999999999
   291   1      11.219999999999992      71.060000000000002      56.100000000000001
   292   1      13.089999999999996      71.060000000000002      57.969999999999992
   293   1      13.089999999999996      72.930000000000007      56.100000000000001
   294   1      11.219999999999992      71.060000000000002      59.839999999999996
   295   1      13.089999999999996      71.060000000000002      61.710000000000001
   296   1      13.089999999999996      72.930000000000007      59.839999999999996
   297   1      11.219999999999992      71.060000000000002      63.580000000000005
   298   1      13.089999999999996      71.060000000000002      65.450000000000003
   299   1      13.089999999999996      72.930000000000007      63.580000000000005
   300   1      13.089999999999996      71.060000000000002      69.189999999999998
   301   1      16.829999999999991      43.009999999999998      56.100000000000001
   302   1      16.829999999999991      43.009999999999998      59.839999999999996
   303   1      16.829999999999991      43.009999999999998      63.580000000000005
   304   1      14.959999999999994      46.749999999999993      50.489999999999988
   305   1      16.829999999999991      44.879999999999995      50.489999999999988
   306   1      16.829999999999991      46.749999999999993       48.61999999999999
   307   1      14.959999999999994      46.749999999999993       54.22999999999999
   308   1      16.829999999999991      44.879999999999995       54.22999999999999
   309   1      16.829999999999991      46.749999999999993      52.359999999999992
   310   1      14.959999999999994      44.879999999999995      56.100000000000001
   311   1      14.959999999999994      46.749999999999993      57.969999999999992
   312   1      16.829999999999991      44.879999999999995      57.969999999999992
   313   1      16.829999999999991      46.749999999999993      56.100000000000001
   314   1      14.959999999999994      44.879999999999995      59.839999999999996
   315   1      14.959999999999994      46.749999999999993      61.710000000000001
   316   1      16.829999999999991      44.879999999999995      61.710000000000001
   317   1      16.829999999999991      46.749999999999993      59.839999999999996
   318   1      14.959999999999994      44.879999999999995      63.580000000000005
   319   1      14.959999999999994      46.749999999999993      65.450000000000003
   320   1      16.829999999999991      44.879999999999995      65.450000000000003
   321   1      16.829999999999991      46.749999999999993      63.580000000000005
   322   1      14.959999999999994      46.749999999999993      69.189999999999998
   323   1      16.829999999999991      44.879999999999995      69.189999999999998
   324   1      16.829999999999991      46.749999999999993      67.319999999999993
   325   1      16.829999999999991      46.749999999999993      71.060000000000002
   326   1      14.959999999999994      50.489999999999988      46.749999999999993
   327   1      16.829999999999991       48.61999999999999      46.749999999999993
   328   1      16.829999999999991      50.489999999999988      44.879999999999995
   329   1      14.959999999999994       48.61999999999999       48.61999999999999
   330   1      14.959999999999994      50.489999999999988      50.489999999999988
   331   1      16.829999999999991       48.61999999999999      50.489999999999988
   332   1      16.829999999999991      50.489999999999988       48.61999999999999
   333   1      14.959999999999994       48.61999999999999      52.359999999999992
   334   1      14.959999999999994      50.489999999999988       54.22999999999999
   335   1      16.829999999999991       48.61999999999999       54.22999999999999
   336   1      16.829999999999991      50.489999999999988      52.359999999999992
   337   1      14.959999999999994       48.61999999999999      56.100000000000001
   338   1      14.959999999999994      50.489999999999988      57.969999999999992
   339   1      16.829999999999991       48.61999999999999      57.969999999999992
   340   1      16.829999999999991      50.489999999999988      56.100000000000001
   341   1      14.959999999999994       48.61999999999999      59.839999999999996
   342   1      14.959999999999994      50.489999999999988      61.710000000000001
   343   1      16.829999999999991       48.61999999999999      61.710000000000001
   344   1      16.829999999999991      50.489999999999988      59.839999999999996
   345   1      14.959999999999994       48.61999999999999      63.580000000000005
   346   1      14.959999999999994      50.489999999999988      65.450000000000003
   347   1      16.829999999999991       48.61999999999999      65.450000000000003
   348   1      16.829999999999991      50.489999999999988      63.580000000000005
   349   1      14.959999999999994       48.61999999999999      67.319999999999993
   350   1      14.959999999999994      50.489999999999988      69.189999999999998
   351   1      16.829999999999991       48.61999999999999      69.189999999999998
   352   1      16.829999999999991      50.489999999999988      67.319999999999993
   353   1      14.959999999999994       48.61999999999999      71.060000000000002
   354   1      14.959999999999994      50.489999999999988      72.930000000000007
   355   1      16.829999999999991       48.61999999999999      72.930000000000007
   356   1      16.829999999999991      50.489999999999988      71.060000000000002
   357   1      16.829999999999991      50.489999999999988      74.799999999999997
   358   1      14.959999999999994       54.22999999999999      46.749999999999993