model_files/NiCoCrFeMn/NiCoCrFeMn_30000/NiCoCrFeMn_320/NiCoCrFeMn_320_fcc_29879_temp.data (written by ASE) 

29879 	 atoms 
5  atom types
0.0                      95  xlo xhi
0.0                      95  ylo yhi
0.0                      95  zlo zhi


Atoms 

     1   1      1.7974999999999997      41.342500000000001      43.140000000000001
     2   1      1.7974999999999997      41.342500000000001      46.735000000000007
     3   1      1.7974999999999997      41.342500000000001      50.330000000000005
     4   1      1.7974999999999997      43.140000000000001      41.342500000000001
     5   1                       0      43.140000000000001      43.140000000000001
     6   1                       0                 44.9375                 44.9375
     7   1      1.7974999999999997      43.140000000000001                 44.9375
     8   1      1.7974999999999997                 44.9375      43.140000000000001
     9   1                       0      43.140000000000001      46.735000000000007
    10   1                       0                 44.9375      48.532500000000006
    11   1      1.7974999999999997      43.140000000000001      48.532500000000006
    12   1      1.7974999999999997                 44.9375      46.735000000000007
    13   1                       0      43.140000000000001      50.330000000000005
    14   1      1.7974999999999997      43.140000000000001      52.127500000000005
    15   1      1.7974999999999997                 44.9375      50.330000000000005
    16   1      1.7974999999999997      46.735000000000007      41.342500000000001
    17   1                       0      46.735000000000007      43.140000000000001
    18   1                       0      48.532500000000006                 44.9375
    19   1      1.7974999999999997      46.735000000000007                 44.9375
    20   1      1.7974999999999997      48.532500000000006      43.140000000000001
    21   1                       0      46.735000000000007      46.735000000000007
    22   1                       0      48.532500000000006      48.532500000000006
    23   1      1.7974999999999997      46.735000000000007      48.532500000000006
    24   1      1.7974999999999997      48.532500000000006      46.735000000000007
    25   1                       0      46.735000000000007      50.330000000000005
    26   1      1.7974999999999997      46.735000000000007      52.127500000000005
    27   1      1.7974999999999997      48.532500000000006      50.330000000000005
    28   1      1.7974999999999997      50.330000000000005      41.342500000000001
    29   1                       0      50.330000000000005      43.140000000000001
    30   1      1.7974999999999997      50.330000000000005                 44.9375
    31   1      1.7974999999999997      52.127500000000005      43.140000000000001
    32   1                       0      50.330000000000005      46.735000000000007
    33   1      1.7974999999999997      50.330000000000005      48.532500000000006
    34   1      1.7974999999999997      52.127500000000005      46.735000000000007
    35   1                       0      50.330000000000005      50.330000000000005
    36   1      1.7974999999999997      50.330000000000005      52.127500000000005
    37   1      1.7974999999999997      52.127500000000005      50.330000000000005
    38   1      3.5949999999999993      37.747500000000002      37.747500000000002
    39   1      5.3925000000000054      35.950000000000003      37.747500000000002
    40   1      5.3925000000000054      37.747500000000002      35.950000000000003
    41   1      3.5949999999999993      37.747500000000002      41.342500000000001
    42   1      5.3925000000000054      35.950000000000003      41.342500000000001
    43   1      5.3925000000000054      37.747500000000002      39.545000000000002
    44   1      3.5949999999999993      37.747500000000002                 44.9375
    45   1      5.3925000000000054      35.950000000000003                 44.9375
    46   1      5.3925000000000054      37.747500000000002      43.140000000000001
    47   1      3.5949999999999993      37.747500000000002      48.532500000000006
    48   1      5.3925000000000054      35.950000000000003      48.532500000000006
    49   1      5.3925000000000054      37.747500000000002      46.735000000000007
    50   1      3.5949999999999993      37.747500000000002      52.127500000000005
    51   1      5.3925000000000054      35.950000000000003      52.127500000000005
    52   1      5.3925000000000054      37.747500000000002      50.330000000000005
    53   1      3.5949999999999993      37.747500000000002      55.722500000000004
    54   1      5.3925000000000054      35.950000000000003      55.722500000000004
    55   1      5.3925000000000054      37.747500000000002      53.925000000000004
    56   1      5.3925000000000054      37.747500000000002       57.52000000000001
    57   1      3.5949999999999993      41.342500000000001      37.747500000000002
    58   1      5.3925000000000054      39.545000000000002      37.747500000000002
    59   1      5.3925000000000054      41.342500000000001      35.950000000000003
    60   1      3.5949999999999993      39.545000000000002      39.545000000000002
    61   1      3.5949999999999993      41.342500000000001      41.342500000000001
    62   1      5.3925000000000054      39.545000000000002      41.342500000000001
    63   1      5.3925000000000054      41.342500000000001      39.545000000000002
    64   1      3.5949999999999993      39.545000000000002      43.140000000000001
    65   1      3.5949999999999993      41.342500000000001                 44.9375
    66   1      5.3925000000000054      39.545000000000002                 44.9375
    67   1      5.3925000000000054      41.342500000000001      43.140000000000001
    68   1      3.5949999999999993      39.545000000000002      46.735000000000007
    69   1      3.5949999999999993      41.342500000000001      48.532500000000006
    70   1      5.3925000000000054      39.545000000000002      48.532500000000006
    71   1      5.3925000000000054      41.342500000000001      46.735000000000007
    72   1      3.5949999999999993      39.545000000000002      50.330000000000005
    73   1      3.5949999999999993      41.342500000000001      52.127500000000005
    74   1      5.3925000000000054      39.545000000000002      52.127500000000005
    75   1      5.3925000000000054      41.342500000000001      50.330000000000005
    76   1      3.5949999999999993      39.545000000000002      53.925000000000004
    77   1      3.5949999999999993      41.342500000000001      55.722500000000004
    78   1      5.3925000000000054      39.545000000000002      55.722500000000004
    79   1      5.3925000000000054      41.342500000000001      53.925000000000004
    80   1      5.3925000000000054      41.342500000000001       57.52000000000001
    81   1      3.5949999999999993                 44.9375      37.747500000000002
    82   1      5.3925000000000054      43.140000000000001      37.747500000000002
    83   1      5.3925000000000054                 44.9375      35.950000000000003
    84   1      3.5949999999999993      43.140000000000001      39.545000000000002
    85   1      3.5949999999999993                 44.9375      41.342500000000001
    86   1      5.3925000000000054      43.140000000000001      41.342500000000001
    87   1      5.3925000000000054                 44.9375      39.545000000000002
    88   1      3.5949999999999993      43.140000000000001      43.140000000000001
    89   1      3.5949999999999993                 44.9375                 44.9375
    90   1      5.3925000000000054      43.140000000000001                 44.9375
    91   1      5.3925000000000054                 44.9375      43.140000000000001
    92   1      3.5949999999999993      43.140000000000001      46.735000000000007
    93   1      3.5949999999999993                 44.9375      48.532500000000006
    94   1      5.3925000000000054      43.140000000000001      48.532500000000006
    95   1      5.3925000000000054                 44.9375      46.735000000000007
    96   1      3.5949999999999993      43.140000000000001      50.330000000000005
    97   1      3.5949999999999993                 44.9375      52.127500000000005
    98   1      5.3925000000000054      43.140000000000001      52.127500000000005
    99   1      5.3925000000000054                 44.9375      50.330000000000005
   100   1      3.5949999999999993      43.140000000000001      53.925000000000004
   101   1      3.5949999999999993                 44.9375      55.722500000000004
   102   1      5.3925000000000054      43.140000000000001      55.722500000000004
   103   1      5.3925000000000054                 44.9375      53.925000000000004
   104   1      5.3925000000000054                 44.9375       57.52000000000001
   105   1      3.5949999999999993      48.532500000000006      37.747500000000002
   106   1      5.3925000000000054      46.735000000000007      37.747500000000002
   107   1      5.3925000000000054      48.532500000000006      35.950000000000003
   108   1      3.5949999999999993      46.735000000000007      39.545000000000002
   109   1      3.5949999999999993      48.532500000000006      41.342500000000001
   110   1      5.3925000000000054      46.735000000000007      41.342500000000001
   111   1      5.3925000000000054      48.532500000000006      39.545000000000002
   112   1      3.5949999999999993      46.735000000000007      43.140000000000001
   113   1      3.5949999999999993      48.532500000000006                 44.9375
   114   1      5.3925000000000054      46.735000000000007                 44.9375
   115   1      5.3925000000000054      48.532500000000006      43.140000000000001
   116   1      3.5949999999999993      46.735000000000007      46.735000000000007
   117   1      3.5949999999999993      48.532500000000006      48.532500000000006
   118   1      5.3925000000000054      46.735000000000007      48.532500000000006
   119   1      5.3925000000000054      48.532500000000006      46.735000000000007
   120   1      3.5949999999999993      46.735000000000007      50.330000000000005
   121   1      3.5949999999999993      48.532500000000006      52.127500000000005
   122   1      5.3925000000000054      46.735000000000007      52.127500000000005
   123   1      5.3925000000000054      48.532500000000006      50.330000000000005
   124   1      3.5949999999999993      46.735000000000007      53.925000000000004
   125   1      3.5949999999999993      48.532500000000006      55.722500000000004
   126   1      5.3925000000000054      46.735000000000007      55.722500000000004
   127   1      5.3925000000000054      48.532500000000006      53.925000000000004
   128   1      5.3925000000000054      48.532500000000006       57.52000000000001
   129   1      3.5949999999999993      52.127500000000005      37.747500000000002
   130   1      5.3925000000000054      50.330000000000005      37.747500000000002
   131   1      5.3925000000000054      52.127500000000005      35.950000000000003
   132   1      3.5949999999999993      50.330000000000005      39.545000000000002
   133   1      3.5949999999999993      52.127500000000005      41.342500000000001
   134   1      5.3925000000000054      50.330000000000005      41.342500000000001
   135   1      5.3925000000000054      52.127500000000005      39.545000000000002
   136   1      3.5949999999999993      50.330000000000005      43.140000000000001
   137   1      3.5949999999999993      52.127500000000005                 44.9375
   138   1      5.3925000000000054      50.330000000000005                 44.9375
   139   1      5.3925000000000054      52.127500000000005      43.140000000000001
   140   1      3.5949999999999993      50.330000000000005      46.735000000000007
   141   1      3.5949999999999993      52.127500000000005      48.532500000000006
   142   1      5.3925000000000054      50.330000000000005      48.532500000000006
   143   1      5.3925000000000054      52.127500000000005      46.735000000000007
   144   1      3.5949999999999993      50.330000000000005      50.330000000000005
   145   1      3.5949999999999993      52.127500000000005      52.127500000000005
   146   1      5.3925000000000054      50.330000000000005      52.127500000000005
   147   1      5.3925000000000054      52.127500000000005      50.330000000000005
   148   1      3.5949999999999993      50.330000000000005      53.925000000000004
   149   1      3.5949999999999993      52.127500000000005      55.722500000000004
   150   1      5.3925000000000054      50.330000000000005      55.722500000000004
   151   1      5.3925000000000054      52.127500000000005      53.925000000000004
   152   1      5.3925000000000054      52.127500000000005       57.52000000000001
   153   1      3.5949999999999993      55.722500000000004      37.747500000000002
   154   1      5.3925000000000054      53.925000000000004      37.747500000000002
   155   1      5.3925000000000054      55.722500000000004      35.950000000000003
   156   1      3.5949999999999993      53.925000000000004      39.545000000000002
   157   1      3.5949999999999993      55.722500000000004      41.342500000000001
   158   1      5.3925000000000054      53.925000000000004      41.342500000000001
   159   1      5.3925000000000054      55.722500000000004      39.545000000000002
   160   1      3.5949999999999993      53.925000000000004      43.140000000000001
   161   1      3.5949999999999993      55.722500000000004                 44.9375
   162   1      5.3925000000000054      53.925000000000004                 44.9375
   163   1      5.3925000000000054      55.722500000000004      43.140000000000001
   164   1      3.5949999999999993      53.925000000000004      46.735000000000007
   165   1      3.5949999999999993      55.722500000000004      48.532500000000006
   166   1      5.3925000000000054      53.925000000000004      48.532500000000006
   167   1      5.3925000000000054      55.722500000000004      46.735000000000007
   168   1      3.5949999999999993      53.925000000000004      50.330000000000005
   169   1      3.5949999999999993      55.722500000000004      52.127500000000005
   170   1      5.3925000000000054      53.925000000000004      52.127500000000005
   171   1      5.3925000000000054      55.722500000000004      50.330000000000005
   172   1      3.5949999999999993      53.925000000000004      53.925000000000004
   173   1      3.5949999999999993      55.722500000000004      55.722500000000004
   174   1      5.3925000000000054      53.925000000000004      55.722500000000004
   175   1      5.3925000000000054      55.722500000000004      53.925000000000004
   176   1      5.3925000000000054      55.722500000000004       57.52000000000001
   177   1      5.3925000000000054       57.52000000000001      37.747500000000002
   178   1      5.3925000000000054       57.52000000000001      41.342500000000001
   179   1      5.3925000000000054       57.52000000000001                 44.9375
   180   1      5.3925000000000054       57.52000000000001      48.532500000000006
   181   1      5.3925000000000054       57.52000000000001      52.127500000000005
   182   1      5.3925000000000054       57.52000000000001      55.722500000000004
   183   1      8.9875000000000043      30.557500000000005      32.355000000000004
   184   1      8.9875000000000043      30.557500000000005      35.950000000000003
   185   1      8.9875000000000043      30.557500000000005      39.545000000000002
   186   1      8.9875000000000043      30.557500000000005      43.140000000000001
   187   1      8.9875000000000043      30.557500000000005      46.735000000000007
   188   1      8.9875000000000043      30.557500000000005      50.330000000000005
   189   1      8.9875000000000043      30.557500000000005      53.925000000000004
   190   1      8.9875000000000043      30.557500000000005       57.52000000000001
   191   1      8.9875000000000043      30.557500000000005      61.115000000000009
   192   1      8.9875000000000043      32.355000000000004      30.557500000000005
   193   1      7.1900000000000048      32.355000000000004      32.355000000000004
   194   1      7.1900000000000048      34.152500000000003      34.152500000000003
   195   1      8.9875000000000043      32.355000000000004      34.152500000000003
   196   1      8.9875000000000043      34.152500000000003      32.355000000000004
   197   1      7.1900000000000048      32.355000000000004      35.950000000000003
   198   1      7.1900000000000048      34.152500000000003      37.747500000000002
   199   1      8.9875000000000043      32.355000000000004      37.747500000000002
   200   1      8.9875000000000043      34.152500000000003      35.950000000000003
   201   1      7.1900000000000048      32.355000000000004      39.545000000000002
   202   1      7.1900000000000048      34.152500000000003      41.342500000000001
   203   1      8.9875000000000043      32.355000000000004      41.342500000000001
   204   1      8.9875000000000043      34.152500000000003      39.545000000000002
   205   1      7.1900000000000048      32.355000000000004      43.140000000000001
   206   1      7.1900000000000048      34.152500000000003                 44.9375
   207   1      8.9875000000000043      32.355000000000004                 44.9375
   208   1      8.9875000000000043      34.152500000000003      43.140000000000001
   209   1      7.1900000000000048      32.355000000000004      46.735000000000007
   210   1      7.1900000000000048      34.152500000000003      48.532500000000006
   211   1      8.9875000000000043      32.355000000000004      48.532500000000006
   212   1      8.9875000000000043      34.152500000000003      46.735000000000007
   213   1      7.1900000000000048      32.355000000000004      50.330000000000005
   214   1      7.1900000000000048      34.152500000000003      52.127500000000005
   215   1      8.9875000000000043      32.355000000000004      52.127500000000005
   216   1      8.9875000000000043      34.152500000000003      50.330000000000005
   217   1      7.1900000000000048      32.355000000000004      53.925000000000004
   218   1      7.1900000000000048      34.152500000000003      55.722500000000004
   219   1      8.9875000000000043      32.355000000000004      55.722500000000004
   220   1      8.9875000000000043      34.152500000000003      53.925000000000004
   221   1      7.1900000000000048      32.355000000000004       57.52000000000001
   222   1      7.1900000000000048      34.152500000000003      59.317499999999995
   223   1      8.9875000000000043      32.355000000000004      59.317499999999995
   224   1      8.9875000000000043      34.152500000000003       57.52000000000001
   225   1      7.1900000000000048      32.355000000000004      61.115000000000009
   226   1      8.9875000000000043      32.355000000000004      62.912500000000009
   227   1      8.9875000000000043      34.152500000000003      61.115000000000009
   228   1      8.9875000000000043      35.950000000000003      30.557500000000005
   229   1      7.1900000000000048      35.950000000000003      32.355000000000004
   230   1      7.1900000000000048      37.747500000000002      34.152500000000003
   231   1      8.9875000000000043      35.950000000000003      34.152500000000003
   232   1      8.9875000000000043      37.747500000000002      32.355000000000004
   233   1      7.1900000000000048      35.950000000000003      35.950000000000003
   234   1      7.1900000000000048      37.747500000000002      37.747500000000002
   235   1      8.9875000000000043      35.950000000000003      37.747500000000002
   236   1      8.9875000000000043      37.747500000000002      35.950000000000003
   237   1      7.1900000000000048      35.950000000000003      39.545000000000002
   238   1      7.1900000000000048      37.747500000000002      41.342500000000001
   239   1      8.9875000000000043      35.950000000000003      41.342500000000001
   240   1      8.9875000000000043      37.747500000000002      39.545000000000002
   241   1      7.1900000000000048      35.950000000000003      43.140000000000001
   242   1      7.1900000000000048      37.747500000000002                 44.9375
   243   1      8.9875000000000043      35.950000000000003                 44.9375
   244   1      8.9875000000000043      37.747500000000002      43.140000000000001
   245   1      7.1900000000000048      35.950000000000003      46.735000000000007
   246   1      7.1900000000000048      37.747500000000002      48.532500000000006
   247   1      8.9875000000000043      35.950000000000003      48.532500000000006
   248   1      8.9875000000000043      37.747500000000002      46.735000000000007
   249   1      7.1900000000000048      35.950000000000003      50.330000000000005
   250   1      7.1900000000000048      37.747500000000002      52.127500000000005
   251   1      8.9875000000000043      35.950000000000003      52.127500000000005
   252   1      8.9875000000000043      37.747500000000002      50.330000000000005
   253   1      7.1900000000000048      35.950000000000003      53.925000000000004
   254   1      7.1900000000000048      37.747500000000002      55.722500000000004
   255   1      8.9875000000000043      35.950000000000003      55.722500000000004
   256   1      8.9875000000000043      37.747500000000002      53.925000000000004
   257   1      7.1900000000000048      35.950000000000003       57.52000000000001
   258   1      7.1900000000000048      37.747500000000002      59.317499999999995
   259   1      8.9875000000000043      35.950000000000003      59.317499999999995
   260   1      8.9875000000000043      37.747500000000002       57.52000000000001
   261   1      7.1900000000000048      35.950000000000003      61.115000000000009
   262   1      8.9875000000000043      35.950000000000003      62.912500000000009
   263   1      8.9875000000000043      37.747500000000002      61.115000000000009
   264   1      8.9875000000000043      39.545000000000002      30.557500000000005
   265   1      7.1900000000000048      39.545000000000002      32.355000000000004
   266   1      7.1900000000000048      41.342500000000001      34.152500000000003
   267   1      8.9875000000000043      39.545000000000002      34.152500000000003
   268   1      8.9875000000000043      41.342500000000001      32.355000000000004
   269   1      7.1900000000000048      39.545000000000002      35.950000000000003
   270   1      7.1900000000000048      41.342500000000001      37.747500000000002
   271   1      8.9875000000000043      39.545000000000002      37.747500000000002
   272   1      8.9875000000000043      41.342500000000001      35.950000000000003
   273   1      7.1900000000000048      39.545000000000002      39.545000000000002
   274   1      7.1900000000000048      41.342500000000001      41.342500000000001
   275   1      8.9875000000000043      39.545000000000002      41.342500000000001
   276   1      8.9875000000000043      41.342500000000001      39.545000000000002
   277   1      7.1900000000000048      39.545000000000002      43.140000000000001
   278   1      7.1900000000000048      41.342500000000001                 44.9375
   279   1      8.9875000000000043      39.545000000000002                 44.9375
   280   1      8.9875000000000043      41.342500000000001      43.140000000000001
   281   1      7.1900000000000048      39.545000000000002      46.735000000000007
   282   1      7.1900000000000048      41.342500000000001      48.532500000000006
   283   1      8.9875000000000043      39.545000000000002      48.532500000000006
   284   1      8.9875000000000043      41.342500000000001      46.735000000000007
   285   1      7.1900000000000048      39.545000000000002      50.330000000000005
   286   1      7.1900000000000048      41.342500000000001      52.127500000000005
   287   1      8.9875000000000043      39.545000000000002      52.127500000000005
   288   1      8.9875000000000043      41.342500000000001      50.330000000000005
   289   1      7.1900000000000048      39.545000000000002      53.925000000000004
   290   1      7.1900000000000048      41.342500000000001      55.722500000000004
   291   1      8.9875000000000043      39.545000000000002      55.722500000000004
   292   1      8.9875000000000043      41.342500000000001      53.925000000000004
   293   1      7.1900000000000048      39.545000000000002       57.52000000000001
   294   1      7.1900000000000048      41.342500000000001      59.317499999999995
   295   1      8.9875000000000043      39.545000000000002      59.317499999999995
   296   1      8.9875000000000043      41.342500000000001       57.52000000000001
   297   1      7.1900000000000048      39.545000000000002      61.115000000000009
   298   1      8.9875000000000043      39.545000000000002      62.912500000000009
   299   1      8.9875000000000043      41.342500000000001      61.115000000000009
   300   1      8.9875000000000043      43.140000000000001      30.557500000000005
   301   1      7.1900000000000048      43.140000000000001      32.355000000000004
   302   1      7.1900000000000048                 44.9375      34.152500000000003
   303   1      8.9875000000000043      43.140000000000001      34.152500000000003
   304   1      8.9875000000000043                 44.9375      32.355000000000004
   305   1      7.1900000000000048      43.140000000000001      35.950000000000003
   306   1      7.1900000000000048                 44.9375      37.747500000000002
   307   1      8.9875000000000043      43.140000000000001      37.747500000000002
   308   1      8.9875000000000043                 44.9375      35.950000000000003
   309   1      7.1900000000000048      43.140000000000001      39.545000000000002
   310   1      7.1900000000000048                 44.9375      41.342500000000001
   311   1      8.9875000000000043      43.140000000000001      41.342500000000001
   312   1      8.9875000000000043                 44.9375      39.545000000000002
   313   1      7.1900000000000048      43.140000000000001      43.140000000000001
   314   1      7.1900000000000048                 44.9375                 44.9375
   315   1      8.9875000000000043      43.140000000000001                 44.9375
   316   1      8.9875000000000043                 44.9375      43.140000000000001
   317   1      7.1900000000000048      43.140000000000001      46.735000000000007
   318   1      7.1900000000000048                 44.9375      48.532500000000006
   319   1      8.9875000000000043      43.140000000000001      48.532500000000006
   320   1      8.9875000000000043                 44.9375      46.735000000000007
   321   1      7.1900000000000048      43.140000000000001      50.330000000000005
   322   1      7.1900000000000048                 44.9375      52.127500000000005
   323   1      8.9875000000000043      43.140000000000001      52.127500000000005
   324   1      8.9875000000000043                 44.9375      50.330000000000005
   325   1      7.1900000000000048      43.140000000000001      53.925000000000004
   326   1      7.1900000000000048                 44.9375      55.722500000000004
   327   1      8.9875000000000043      43.140000000000001      55.722500000000004
   328   1      8.9875000000000043                 44.9375      53.925000000000004
   329   1      7.1900000000000048      43.140000000000001       57.52000000000001
   330   1      7.1900000000000048                 44.9375      59.317499999999995
   331   1      8.9875000000000043      43.140000000000001      59.317499999999995
   332   1      8.9875000000000043                 44.9375       57.52000000000001
   333   1      7.1900000000000048      43.140000000000001      61.115000000000009
   334   1      8.9875000000000043      43.140000000000001      62.912500000000009
   335   1      8.9875000000000043                 44.9375      61.115000000000009
   336   1      8.9875000000000043      46.735000000000007      30.557500000000005
   337   1      7.1900000000000048      46.735000000000007      32.355000000000004
   338   1      7.1900000000000048      48.532500000000006      34.152500000000003
   339   1      8.9875000000000043      46.735000000000007      34.152500000000003
   340   1      8.9875000000000043      48.532500000000006      32.355000000000004
   341   1      7.1900000000000048      46.735000000000007      35.950000000000003
   342   1      7.1900000000000048      48.532500000000006      37.747500000000002
   343   1      8.9875000000000043      46.735000000000007      37.747500000000002
   344   1      8.9875000000000043      48.532500000000006      35.950000000000003
   345   1      7.1900000000000048      46.735000000000007      39.545000000000002
   346   1      7.1900000000000048      48.532500000000006      41.342500000000001
   347   1      8.9875000000000043      46.735000000000007      41.342500000000001
   348   1      8.9875000000000043      48.532500000000006      39.545000000000002
   349   1      7.1900000000000048      46.735000000000007      43.140000000000001
   350   1      7.1900000000000048      48.532500000000006                 44.9375
   351   1      8.9875000000000043      46.735000000000007                 44.9375
   352   1      8.9875000000000043      48.532500000000006      43.140000000000001
   353   1      7.1900000000000048      46.735000000000007      46.735000000000007
   354   1      7.1900000000000048      48.532500000000006      48.532500000000006
   355   1      8.9875000000000043      46.735000000000007      48.532500000000006
   356   1      8.9875000000000043      48.532500000000006      46.735000000000007
   357   1      7.1900000000000048      46.735000000000007      50.330000000000005
   358   1      7.1900000000000048      48.532500000000006      52.127500000000005