LAMMPS data file via write_data, version 30 Nov 2020, timestep = 0

28595 atoms
5 atom types

0 122 xlo xhi
0 122 ylo yhi
0 122 zlo zhi

Masses

1 58.69
2 58.933
3 51.96
4 55.847
5 54.94

Atoms # atomic

7 2 3.5949999999999847 59.31749999999999 59.31749999999999 0 0 0
8 1 5.392499999999984 57.51999999999999 59.31749999999999 0 0 0
9 4 5.392499999999984 59.31749999999999 57.51999999999999 0 0 0
32 1 7.1899999999999835 55.72249999999999 59.31749999999999 0 0 0
33 4 8.987499999999983 53.92499999999999 59.31749999999999 0 0 0
34 5 8.987499999999983 55.72249999999999 57.51999999999999 0 0 0
40 5 7.1899999999999835 59.31749999999999 55.72249999999999 0 0 0
41 2 8.987499999999983 57.51999999999999 55.72249999999999 0 0 0
42 3 8.987499999999983 59.31749999999999 53.92499999999999 0 0 0
43 4 7.1899999999999835 57.51999999999999 57.51999999999999 0 0 0
44 2 7.1899999999999835 59.31749999999999 59.31749999999999 0 0 0
45 1 8.987499999999983 57.51999999999999 59.31749999999999 0 0 0
46 4 8.987499999999983 59.31749999999999 57.51999999999999 0 0 0
93 2 10.784999999999991 52.12749999999999 59.31749999999999 0 0 0
94 5 12.58249999999999 50.32999999999999 59.31749999999999 0 0 0
95 4 12.58249999999999 52.12749999999999 57.51999999999999 0 0 0
101 4 10.784999999999991 55.72249999999999 55.72249999999999 0 0 0
102 1 12.58249999999999 53.92499999999999 55.72249999999999 0 0 0
103 4 12.58249999999999 55.72249999999999 53.92499999999999 0 0 0
104 2 10.784999999999991 53.92499999999999 57.51999999999999 0 0 0
105 3 10.784999999999991 55.72249999999999 59.31749999999999 0 0 0
106 5 12.58249999999999 53.92499999999999 59.31749999999999 0 0 0
107 3 12.58249999999999 55.72249999999999 57.51999999999999 0 0 0
117 5 10.784999999999991 59.31749999999999 52.12749999999999 0 0 0
118 1 12.58249999999999 57.51999999999999 52.12749999999999 0 0 0
119 2 12.58249999999999 59.31749999999999 50.32999999999999 0 0 0
120 3 10.784999999999991 57.51999999999999 53.92499999999999 0 0 0
121 4 10.784999999999991 59.31749999999999 55.72249999999999 0 0 0
122 4 12.58249999999999 57.51999999999999 55.72249999999999 0 0 0
123 5 12.58249999999999 59.31749999999999 53.92499999999999 0 0 0
124 1 10.784999999999991 57.51999999999999 57.51999999999999 0 0 0
125 5 10.784999999999991 59.31749999999999 59.31749999999999 0 0 0
126 3 12.58249999999999 57.51999999999999 59.31749999999999 0 0 0
127 3 12.58249999999999 59.31749999999999 57.51999999999999 0 0 0
206 3 14.37999999999999 48.53249999999999 59.31749999999999 0 0 0
207 1 16.177499999999988 46.735 59.31749999999999 0 0 0
208 1 16.177499999999988 48.53249999999999 57.51999999999999 0 0 0
214 3 14.37999999999999 52.12749999999999 55.72249999999999 0 0 0
215 4 16.177499999999988 50.32999999999999 55.72249999999999 0 0 0
216 2 16.177499999999988 52.12749999999999 53.92499999999999 0 0 0
217 4 14.37999999999999 50.32999999999999 57.51999999999999 0 0 0
218 5 14.37999999999999 52.12749999999999 59.31749999999999 0 0 0
219 2 16.177499999999988 50.32999999999999 59.31749999999999 0 0 0
220 1 16.177499999999988 52.12749999999999 57.51999999999999 0 0 0
230 5 14.37999999999999 55.72249999999999 52.12749999999999 0 0 0
231 3 16.177499999999988 53.92499999999999 52.12749999999999 0 0 0
232 3 16.177499999999988 55.72249999999999 50.32999999999999 0 0 0
233 5 14.37999999999999 53.92499999999999 53.92499999999999 0 0 0
234 3 14.37999999999999 55.72249999999999 55.72249999999999 0 0 0
235 1 16.177499999999988 53.92499999999999 55.72249999999999 0 0 0
236 3 16.177499999999988 55.72249999999999 53.92499999999999 0 0 0
237 4 14.37999999999999 53.92499999999999 57.51999999999999 0 0 0
238 3 14.37999999999999 55.72249999999999 59.31749999999999 0 0 0
239 2 16.177499999999988 53.92499999999999 59.31749999999999 0 0 0
240 2 16.177499999999988 55.72249999999999 57.51999999999999 0 0 0
254 3 14.37999999999999 59.31749999999999 48.53249999999999 0 0 0
255 1 16.177499999999988 57.51999999999999 48.53249999999999 0 0 0
256 1 16.177499999999988 59.31749999999999 46.735 0 0 0
257 3 14.37999999999999 57.51999999999999 50.32999999999999 0 0 0
258 3 14.37999999999999 59.31749999999999 52.12749999999999 0 0 0
259 3 16.177499999999988 57.51999999999999 52.12749999999999 0 0 0
260 4 16.177499999999988 59.31749999999999 50.32999999999999 0 0 0
261 2 14.37999999999999 57.51999999999999 53.92499999999999 0 0 0
262 3 14.37999999999999 59.31749999999999 55.72249999999999 0 0 0
263 1 16.177499999999988 57.51999999999999 55.72249999999999 0 0 0
264 5 16.177499999999988 59.31749999999999 53.92499999999999 0 0 0
265 2 14.37999999999999 57.51999999999999 57.51999999999999 0 0 0
266 4 14.37999999999999 59.31749999999999 59.31749999999999 0 0 0
267 5 16.177499999999988 57.51999999999999 59.31749999999999 0 0 0
268 5 16.177499999999988 59.31749999999999 57.51999999999999 0 0 0
387 4 17.97499999999999 44.93749999999999 59.31749999999999 0 0 0
388 4 19.77249999999999 43.13999999999999 59.31749999999999 0 0 0
389 3 19.77249999999999 44.93749999999999 57.51999999999999 0 0 0
395 3 17.97499999999999 48.53249999999999 55.72249999999999 0 0 0
396 4 19.77249999999999 46.735 55.72249999999999 0 0 0
397 3 19.77249999999999 48.53249999999999 53.92499999999999 0 0 0
398 1 17.97499999999999 46.735 57.51999999999999 0 0 0
399 4 17.97499999999999 48.53249999999999 59.31749999999999 0 0 0
400 4 19.77249999999999 46.735 59.31749999999999 0 0 0
401 1 19.77249999999999 48.53249999999999 57.51999999999999 0 0 0
411 1 17.97499999999999 52.12749999999999 52.12749999999999 0 0 0
412 2 19.77249999999999 50.32999999999999 52.12749999999999 0 0 0
413 4 19.77249999999999 52.12749999999999 50.32999999999999 0 0 0
414 4 17.97499999999999 50.32999999999999 53.92499999999999 0 0 0
415 2 17.97499999999999 52.12749999999999 55.72249999999999 0 0 0
416 1 19.77249999999999 50.32999999999999 55.72249999999999 0 0 0
417 2 19.77249999999999 52.12749999999999 53.92499999999999 0 0 0
418 5 17.97499999999999 50.32999999999999 57.51999999999999 0 0 0
419 2 17.97499999999999 52.12749999999999 59.31749999999999 0 0 0
420 3 19.77249999999999 50.32999999999999 59.31749999999999 0 0 0
421 1 19.77249999999999 52.12749999999999 57.51999999999999 0 0 0
435 5 17.97499999999999 55.72249999999999 48.53249999999999 0 0 0
436 3 19.77249999999999 53.92499999999999 48.53249999999999 0 0 0
437 5 19.77249999999999 55.72249999999999 46.735 0 0 0
438 5 17.97499999999999 53.92499999999999 50.32999999999999 0 0 0
439 4 17.97499999999999 55.72249999999999 52.12749999999999 0 0 0
440 5 19.77249999999999 53.92499999999999 52.12749999999999 0 0 0
441 3 19.77249999999999 55.72249999999999 50.32999999999999 0 0 0
442 2 17.97499999999999 53.92499999999999 53.92499999999999 0 0 0
443 2 17.97499999999999 55.72249999999999 55.72249999999999 0 0 0
444 2 19.77249999999999 53.92499999999999 55.72249999999999 0 0 0
445 1 19.77249999999999 55.72249999999999 53.92499999999999 0 0 0
446 2 17.97499999999999 53.92499999999999 57.51999999999999 0 0 0
447 5 17.97499999999999 55.72249999999999 59.31749999999999 0 0 0
448 1 19.77249999999999 53.92499999999999 59.31749999999999 0 0 0
449 4 19.77249999999999 55.72249999999999 57.51999999999999 0 0 0
467 5 17.97499999999999 59.31749999999999 44.93749999999999 0 0 0
468 5 19.77249999999999 57.51999999999999 44.93749999999999 0 0 0
469 1 19.77249999999999 59.31749999999999 43.13999999999999 0 0 0
470 1 17.97499999999999 57.51999999999999 46.735 0 0 0
471 1 17.97499999999999 59.31749999999999 48.53249999999999 0 0 0
472 1 19.77249999999999 57.51999999999999 48.53249999999999 0 0 0
473 5 19.77249999999999 59.31749999999999 46.735 0 0 0
474 2 17.97499999999999 57.51999999999999 50.32999999999999 0 0 0
475 1 17.97499999999999 59.31749999999999 52.12749999999999 0 0 0
476 2 19.77249999999999 57.51999999999999 52.12749999999999 0 0 0
477 5 19.77249999999999 59.31749999999999 50.32999999999999 0 0 0
478 5 17.97499999999999 57.51999999999999 53.92499999999999 0 0 0
479 3 17.97499999999999 59.31749999999999 55.72249999999999 0 0 0
480 5 19.77249999999999 57.51999999999999 55.72249999999999 0 0 0
481 3 19.77249999999999 59.31749999999999 53.92499999999999 0 0 0
482 1 17.97499999999999 57.51999999999999 57.51999999999999 0 0 0
483 3 17.97499999999999 59.31749999999999 59.31749999999999 0 0 0
484 4 19.77249999999999 57.51999999999999 59.31749999999999 0 0 0
485 5 19.77249999999999 59.31749999999999 57.51999999999999 0 0 0
652 1 21.569999999999997 41.342499999999994 59.31749999999999 0 0 0
653 3 23.367499999999996 39.544999999999995 59.31749999999999 0 0 0
654 1 23.367499999999996 41.342499999999994 57.51999999999999 0 0 0
660 3 21.569999999999997 44.93749999999999 55.72249999999999 0 0 0
661 5 23.367499999999996 43.13999999999999 55.72249999999999 0 0 0
662 5 23.367499999999996 44.93749999999999 53.92499999999999 0 0 0
663 1 21.569999999999997 43.13999999999999 57.51999999999999 0 0 0
664 1 21.569999999999997 44.93749999999999 59.31749999999999 0 0 0
665 1 23.367499999999996 43.13999999999999 59.31749999999999 0 0 0
666 5 23.367499999999996 44.93749999999999 57.51999999999999 0 0 0
676 1 21.569999999999997 48.53249999999999 52.12749999999999 0 0 0
677 5 23.367499999999996 46.735 52.12749999999999 0 0 0
678 1 23.367499999999996 48.53249999999999 50.32999999999999 0 0 0
679 2 21.569999999999997 46.735 53.92499999999999 0 0 0
680 5 21.569999999999997 48.53249999999999 55.72249999999999 0 0 0
681 2 23.367499999999996 46.735 55.72249999999999 0 0 0
682 3 23.367499999999996 48.53249999999999 53.92499999999999 0 0 0
683 1 21.569999999999997 46.735 57.51999999999999 0 0 0
684 2 21.569999999999997 48.53249999999999 59.31749999999999 0 0 0
685 3 23.367499999999996 46.735 59.31749999999999 0 0 0
686 2 23.367499999999996 48.53249999999999 57.51999999999999 0 0 0
700 4 21.569999999999997 52.12749999999999 48.53249999999999 0 0 0
701 4 23.367499999999996 50.32999999999999 48.53249999999999 0 0 0
702 1 23.367499999999996 52.12749999999999 46.735 0 0 0
703 4 21.569999999999997 50.32999999999999 50.32999999999999 0 0 0
704 1 21.569999999999997 52.12749999999999 52.12749999999999 0 0 0
705 1 23.367499999999996 50.32999999999999 52.12749999999999 0 0 0
706 5 23.367499999999996 52.12749999999999 50.32999999999999 0 0 0
707 3 21.569999999999997 50.32999999999999 53.92499999999999 0 0 0
708 5 21.569999999999997 52.12749999999999 55.72249999999999 0 0 0
709 3 23.367499999999996 50.32999999999999 55.72249999999999 0 0 0
710 5 23.367499999999996 52.12749999999999 53.92499999999999 0 0 0
711 5 21.569999999999997 50.32999999999999 57.51999999999999 0 0 0
712 4 21.569999999999997 52.12749999999999 59.31749999999999 0 0 0
713 2 23.367499999999996 50.32999999999999 59.31749999999999 0 0 0
714 4 23.367499999999996 52.12749999999999 57.51999999999999 0 0 0
732 1 21.569999999999997 55.72249999999999 44.93749999999999 0 0 0
733 4 23.367499999999996 53.92499999999999 44.93749999999999 0 0 0
734 1 23.367499999999996 55.72249999999999 43.13999999999999 0 0 0
735 3 21.569999999999997 53.92499999999999 46.735 0 0 0
736 2 21.569999999999997 55.72249999999999 48.53249999999999 0 0 0
737 4 23.367499999999996 53.92499999999999 48.53249999999999 0 0 0
738 5 23.367499999999996 55.72249999999999 46.735 0 0 0
739 2 21.569999999999997 53.92499999999999 50.32999999999999 0 0 0
740 1 21.569999999999997 55.72249999999999 52.12749999999999 0 0 0
741 3 23.367499999999996 53.92499999999999 52.12749999999999 0 0 0
742 5 23.367499999999996 55.72249999999999 50.32999999999999 0 0 0
743 5 21.569999999999997 53.92499999999999 53.92499999999999 0 0 0
744 2 21.569999999999997 55.72249999999999 55.72249999999999 0 0 0
745 3 23.367499999999996 53.92499999999999 55.72249999999999 0 0 0
746 3 23.367499999999996 55.72249999999999 53.92499999999999 0 0 0
747 1 21.569999999999997 53.92499999999999 57.51999999999999 0 0 0
748 4 21.569999999999997 55.72249999999999 59.31749999999999 0 0 0
749 5 23.367499999999996 53.92499999999999 59.31749999999999 0 0 0
750 4 23.367499999999996 55.72249999999999 57.51999999999999 0 0 0
772 1 21.569999999999997 59.31749999999999 41.342499999999994 0 0 0
773 2 23.367499999999996 57.51999999999999 41.342499999999994 0 0 0
774 2 23.367499999999996 59.31749999999999 39.544999999999995 0 0 0
775 3 21.569999999999997 57.51999999999999 43.13999999999999 0 0 0
776 5 21.569999999999997 59.31749999999999 44.93749999999999 0 0 0
777 1 23.367499999999996 57.51999999999999 44.93749999999999 0 0 0
778 5 23.367499999999996 59.31749999999999 43.13999999999999 0 0 0
779 3 21.569999999999997 57.51999999999999 46.735 0 0 0
780 3 21.569999999999997 59.31749999999999 48.53249999999999 0 0 0
781 2 23.367499999999996 57.51999999999999 48.53249999999999 0 0 0
782 3 23.367499999999996 59.31749999999999 46.735 0 0 0
783 2 21.569999999999997 57.51999999999999 50.32999999999999 0 0 0
784 1 21.569999999999997 59.31749999999999 52.12749999999999 0 0 0
785 4 23.367499999999996 57.51999999999999 52.12749999999999 0 0 0
786 3 23.367499999999996 59.31749999999999 50.32999999999999 0 0 0
787 1 21.569999999999997 57.51999999999999 53.92499999999999 0 0 0
788 2 21.569999999999997 59.31749999999999 55.72249999999999 0 0 0
789 2 23.367499999999996 57.51999999999999 55.72249999999999 0 0 0
790 5 23.367499999999996 59.31749999999999 53.92499999999999 0 0 0
791 2 21.569999999999997 57.51999999999999 57.51999999999999 0 0 0
792 1 21.569999999999997 59.31749999999999 59.31749999999999 0 0 0
793 5 23.367499999999996 57.51999999999999 59.31749999999999 0 0 0
794 5 23.367499999999996 59.31749999999999 57.51999999999999 0 0 0
1017 2 25.164999999999996 37.747499999999995 59.31749999999999 0 0 0
1018 2 26.96249999999999 35.949999999999996 59.31749999999999 0 0 0
1019 3 26.96249999999999 37.747499999999995 57.51999999999999 0 0 0
1025 5 25.164999999999996 41.342499999999994 55.72249999999999 0 0 0
1026 5 26.96249999999999 39.544999999999995 55.72249999999999 0 0 0
1027 1 26.96249999999999 41.342499999999994 53.92499999999999 0 0 0
1028 2 25.164999999999996 39.544999999999995 57.51999999999999 0 0 0
1029 1 25.164999999999996 41.342499999999994 59.31749999999999 0 0 0
1030 4 26.96249999999999 39.544999999999995 59.31749999999999 0 0 0
1031 5 26.96249999999999 41.342499999999994 57.51999999999999 0 0 0
1041 2 25.164999999999996 44.93749999999999 52.12749999999999 0 0 0
1042 4 26.96249999999999 43.13999999999999 52.12749999999999 0 0 0
1043 4 26.96249999999999 44.93749999999999 50.32999999999999 0 0 0
1044 5 25.164999999999996 43.13999999999999 53.92499999999999 0 0 0
1045 2 25.164999999999996 44.93749999999999 55.72249999999999 0 0 0
1046 5 26.96249999999999 43.13999999999999 55.72249999999999 0 0 0
1047 3 26.96249999999999 44.93749999999999 53.92499999999999 0 0 0
1048 2 25.164999999999996 43.13999999999999 57.51999999999999 0 0 0
1049 2 25.164999999999996 44.93749999999999 59.31749999999999 0 0 0
1050 4 26.96249999999999 43.13999999999999 59.31749999999999 0 0 0
1051 1 26.96249999999999 44.93749999999999 57.51999999999999 0 0 0
1065 1 25.164999999999996 48.53249999999999 48.53249999999999 0 0 0
1066 4 26.96249999999999 46.735 48.53249999999999 0 0 0
1067 4 26.96249999999999 48.53249999999999 46.735 0 0 0
1068 3 25.164999999999996 46.735 50.32999999999999 0 0 0
1069 4 25.164999999999996 48.53249999999999 52.12749999999999 0 0 0
1070 5 26.96249999999999 46.735 52.12749999999999 0 0 0
1071 4 26.96249999999999 48.53249999999999 50.32999999999999 0 0 0
1072 5 25.164999999999996 46.735 53.92499999999999 0 0 0
1073 2 25.164999999999996 48.53249999999999 55.72249999999999 0 0 0
1074 4 26.96249999999999 46.735 55.72249999999999 0 0 0
1075 3 26.96249999999999 48.53249999999999 53.92499999999999 0 0 0
1076 5 25.164999999999996 46.735 57.51999999999999 0 0 0
1077 1 25.164999999999996 48.53249999999999 59.31749999999999 0 0 0
1078 5 26.96249999999999 46.735 59.31749999999999 0 0 0
1079 5 26.96249999999999 48.53249999999999 57.51999999999999 0 0 0
1097 1 25.164999999999996 52.12749999999999 44.93749999999999 0 0 0
1098 3 26.96249999999999 50.32999999999999 44.93749999999999 0 0 0
1099 4 26.96249999999999 52.12749999999999 43.13999999999999 0 0 0
1100 2 25.164999999999996 50.32999999999999 46.735 0 0 0
1101 4 25.164999999999996 52.12749999999999 48.53249999999999 0 0 0
1102 3 26.96249999999999 50.32999999999999 48.53249999999999 0 0 0
1103 4 26.96249999999999 52.12749999999999 46.735 0 0 0
1104 1 25.164999999999996 50.32999999999999 50.32999999999999 0 0 0
1105 1 25.164999999999996 52.12749999999999 52.12749999999999 0 0 0
1106 5 26.96249999999999 50.32999999999999 52.12749999999999 0 0 0
1107 4 26.96249999999999 52.12749999999999 50.32999999999999 0 0 0
1108 1 25.164999999999996 50.32999999999999 53.92499999999999 0 0 0
1109 2 25.164999999999996 52.12749999999999 55.72249999999999 0 0 0
1110 3 26.96249999999999 50.32999999999999 55.72249999999999 0 0 0
1111 2 26.96249999999999 52.12749999999999 53.92499999999999 0 0 0
1112 3 25.164999999999996 50.32999999999999 57.51999999999999 0 0 0
1113 2 25.164999999999996 52.12749999999999 59.31749999999999 0 0 0
1114 5 26.96249999999999 50.32999999999999 59.31749999999999 0 0 0
1115 4 26.96249999999999 52.12749999999999 57.51999999999999 0 0 0
1137 2 25.164999999999996 55.72249999999999 41.342499999999994 0 0 0
1138 2 26.96249999999999 53.92499999999999 41.342499999999994 0 0 0
1139 1 26.96249999999999 55.72249999999999 39.544999999999995 0 0 0
1140 3 25.164999999999996 53.92499999999999 43.13999999999999 0 0 0
1141 1 25.164999999999996 55.72249999999999 44.93749999999999 0 0 0
1142 2 26.96249999999999 53.92499999999999 44.93749999999999 0 0 0
1143 3 26.96249999999999 55.72249999999999 43.13999999999999 0 0 0
1144 4 25.164999999999996 53.92499999999999 46.735 0 0 0
1145 5 25.164999999999996 55.72249999999999 48.53249999999999 0 0 0
1146 3 26.96249999999999 53.92499999999999 48.53249999999999 0 0 0
1147 5 26.96249999999999 55.72249999999999 46.735 0 0 0
1148 1 25.164999999999996 53.92499999999999 50.32999999999999 0 0 0
1149 3 25.164999999999996 55.72249999999999 52.12749999999999 0 0 0
1150 2 26.96249999999999 53.92499999999999 52.12749999999999 0 0 0
1151 4 26.96249999999999 55.72249999999999 50.32999999999999 0 0 0
1152 3 25.164999999999996 53.92499999999999 53.92499999999999 0 0 0
1153 5 25.164999999999996 55.72249999999999 55.72249999999999 0 0 0
1154 3 26.96249999999999 53.92499999999999 55.72249999999999 0 0 0
1155 5 26.96249999999999 55.72249999999999 53.92499999999999 0 0 0
1156 1 25.164999999999996 53.92499999999999 57.51999999999999 0 0 0
1157 4 25.164999999999996 55.72249999999999 59.31749999999999 0 0 0
1158 5 26.96249999999999 53.92499999999999 59.31749999999999 0 0 0
1159 5 26.96249999999999 55.72249999999999 57.51999999999999 0 0 0
1185 2 25.164999999999996 59.31749999999999 37.747499999999995 0 0 0
1186 1 26.96249999999999 57.51999999999999 37.747499999999995 0 0 0
1187 4 26.96249999999999 59.31749999999999 35.949999999999996 0 0 0
1188 2 25.164999999999996 57.51999999999999 39.544999999999995 0 0 0
1189 2 25.164999999999996 59.31749999999999 41.342499999999994 0 0 0
1190 2 26.96249999999999 57.51999999999999 41.342499999999994 0 0 0
1191 3 26.96249999999999 59.31749999999999 39.544999999999995 0 0 0
1192 2 25.164999999999996 57.51999999999999 43.13999999999999 0 0 0
1193 2 25.164999999999996 59.31749999999999 44.93749999999999 0 0 0
1194 4 26.96249999999999 57.51999999999999 44.93749999999999 0 0 0
1195 5 26.96249999999999 59.31749999999999 43.13999999999999 0 0 0
1196 3 25.164999999999996 57.51999999999999 46.735 0 0 0
1197 1 25.164999999999996 59.31749999999999 48.53249999999999 0 0 0
1198 5 26.96249999999999 57.51999999999999 48.53249999999999 0 0 0
1199 1 26.96249999999999 59.31749999999999 46.735 0 0 0
1200 4 25.164999999999996 57.51999999999999 50.32999999999999 0 0 0
1201 2 25.164999999999996 59.31749999999999 52.12749999999999 0 0 0
1202 5 26.96249999999999 57.51999999999999 52.12749999999999 0 0 0
1203 5 26.96249999999999 59.31749999999999 50.32999999999999 0 0 0
1204 3 25.164999999999996 57.51999999999999 53.92499999999999 0 0 0
1205 3 25.164999999999996 59.31749999999999 55.72249999999999 0 0 0
1206 5 26.96249999999999 57.51999999999999 55.72249999999999 0 0 0
1207 1 26.96249999999999 59.31749999999999 53.92499999999999 0 0 0
1208 2 25.164999999999996 57.51999999999999 57.51999999999999 0 0 0
1209 4 25.164999999999996 59.31749999999999 59.31749999999999 0 0 0
1210 4 26.96249999999999 57.51999999999999 59.31749999999999 0 0 0
1211 1 26.96249999999999 59.31749999999999 57.51999999999999 0 0 0
1498 2 28.75999999999999 34.152499999999996 59.31749999999999 0 0 0
1499 1 30.557499999999994 32.355 59.31749999999999 0 0 0
1500 4 30.557499999999994 34.152499999999996 57.51999999999999 0 0 0
1506 2 28.75999999999999 37.747499999999995 55.72249999999999 0 0 0
1507 3 30.557499999999994 35.949999999999996 55.72249999999999 0 0 0
1508 1 30.557499999999994 37.747499999999995 53.92499999999999 0 0 0
1509 3 28.75999999999999 35.949999999999996 57.51999999999999 0 0 0
1510 1 28.75999999999999 37.747499999999995 59.31749999999999 0 0 0
1511 5 30.557499999999994 35.949999999999996 59.31749999999999 0 0 0
1512 4 30.557499999999994 37.747499999999995 57.51999999999999 0 0 0
1522 2 28.75999999999999 41.342499999999994 52.12749999999999 0 0 0
1523 5 30.557499999999994 39.544999999999995 52.12749999999999 0 0 0
1524 1 30.557499999999994 41.342499999999994 50.32999999999999 0 0 0
1525 2 28.75999999999999 39.544999999999995 53.92499999999999 0 0 0
1526 3 28.75999999999999 41.342499999999994 55.72249999999999 0 0 0
1527 3 30.557499999999994 39.544999999999995 55.72249999999999 0 0 0
1528 5 30.557499999999994 41.342499999999994 53.92499999999999 0 0 0
1529 3 28.75999999999999 39.544999999999995 57.51999999999999 0 0 0
1530 3 28.75999999999999 41.342499999999994 59.31749999999999 0 0 0
1531 5 30.557499999999994 39.544999999999995 59.31749999999999 0 0 0
1532 1 30.557499999999994 41.342499999999994 57.51999999999999 0 0 0
1546 3 28.75999999999999 44.93749999999999 48.53249999999999 0 0 0
1547 1 30.557499999999994 43.13999999999999 48.53249999999999 0 0 0
1548 1 30.557499999999994 44.93749999999999 46.735 0 0 0
1549 3 28.75999999999999 43.13999999999999 50.32999999999999 0 0 0
1550 1 28.75999999999999 44.93749999999999 52.12749999999999 0 0 0
1551 5 30.557499999999994 43.13999999999999 52.12749999999999 0 0 0
1552 2 30.557499999999994 44.93749999999999 50.32999999999999 0 0 0
1553 4 28.75999999999999 43.13999999999999 53.92499999999999 0 0 0
1554 4 28.75999999999999 44.93749999999999 55.72249999999999 0 0 0
1555 5 30.557499999999994 43.13999999999999 55.72249999999999 0 0 0
1556 4 30.557499999999994 44.93749999999999 53.92499999999999 0 0 0
1557 1 28.75999999999999 43.13999999999999 57.51999999999999 0 0 0
1558 2 28.75999999999999 44.93749999999999 59.31749999999999 0 0 0
1559 1 30.557499999999994 43.13999999999999 59.31749999999999 0 0 0
1560 5 30.557499999999994 44.93749999999999 57.51999999999999 0 0 0
1578 1 28.75999999999999 48.53249999999999 44.93749999999999 0 0 0
1579 2 30.557499999999994 46.735 44.93749999999999 0 0 0
1580 1 30.557499999999994 48.53249999999999 43.13999999999999 0 0 0
1581 1 28.75999999999999 46.735 46.735 0 0 0
1582 2 28.75999999999999 48.53249999999999 48.53249999999999 0 0 0
1583 3 30.557499999999994 46.735 48.53249999999999 0 0 0
1584 3 30.557499999999994 48.53249999999999 46.735 0 0 0
1585 2 28.75999999999999 46.735 50.32999999999999 0 0 0
1586 5 28.75999999999999 48.53249999999999 52.12749999999999 0 0 0
1587 2 30.557499999999994 46.735 52.12749999999999 0 0 0
1588 4 30.557499999999994 48.53249999999999 50.32999999999999 0 0 0
1589 2 28.75999999999999 46.735 53.92499999999999 0 0 0
1590 4 28.75999999999999 48.53249999999999 55.72249999999999 0 0 0
1591 4 30.557499999999994 46.735 55.72249999999999 0 0 0
1592 2 30.557499999999994 48.53249999999999 53.92499999999999 0 0 0
1593 5 28.75999999999999 46.735 57.51999999999999 0 0 0
1594 3 28.75999999999999 48.53249999999999 59.31749999999999 0 0 0
1595 1 30.557499999999994 46.735 59.31749999999999 0 0 0
1596 4 30.557499999999994 48.53249999999999 57.51999999999999 0 0 0
1618 1 28.75999999999999 52.12749999999999 41.342499999999994 0 0 0
1619 2 30.557499999999994 50.32999999999999 41.342499999999994 0 0 0
1620 5 30.557499999999994 52.12749999999999 39.544999999999995 0 0 0
1621 3 28.75999999999999 50.32999999999999 43.13999999999999 0 0 0
1622 5 28.75999999999999 52.12749999999999 44.93749999999999 0 0 0
1623 4 30.557499999999994 50.32999999999999 44.93749999999999 0 0 0
1624 4 30.557499999999994 52.12749999999999 43.13999999999999 0 0 0
1625 5 28.75999999999999 50.32999999999999 46.735 0 0 0
1626 3 28.75999999999999 52.12749999999999 48.53249999999999 0 0 0
1627 3 30.557499999999994 50.32999999999999 48.53249999999999 0 0 0
1628 5 30.557499999999994 52.12749999999999 46.735 0 0 0
1629 4 28.75999999999999 50.32999999999999 50.32999999999999 0 0 0
1630 5 28.75999999999999 52.12749999999999 52.12749999999999 0 0 0
1631 5 30.557499999999994 50.32999999999999 52.12749999999999 0 0 0
1632 4 30.557499999999994 52.12749999999999 50.32999999999999 0 0 0
1633 1 28.75999999999999 50.32999999999999 53.92499999999999 0 0 0
1634 4 28.75999999999999 52.12749999999999 55.72249999999999 0 0 0
1635 2 30.557499999999994 50.32999999999999 55.72249999999999 0 0 0
1636 4 30.557499999999994 52.12749999999999 53.92499999999999 0 0 0
1637 1 28.75999999999999 50.32999999999999 57.51999999999999 0 0 0
1638 4 28.75999999999999 52.12749999999999 59.31749999999999 0 0 0
1639 1 30.557499999999994 50.32999999999999 59.31749999999999 0 0 0
1640 2 30.557499999999994 52.12749999999999 57.51999999999999 0 0 0
1666 3 28.75999999999999 55.72249999999999 37.747499999999995 0 0 0
1667 2 30.557499999999994 53.92499999999999 37.747499999999995 0 0 0
1668 2 30.557499999999994 55.72249999999999 35.949999999999996 0 0 0
1669 1 28.75999999999999 53.92499999999999 39.544999999999995 0 0 0
1670 1 28.75999999999999 55.72249999999999 41.342499999999994 0 0 0
1671 1 30.557499999999994 53.92499999999999 41.342499999999994 0 0 0
1672 4 30.557499999999994 55.72249999999999 39.544999999999995 0 0 0
1673 2 28.75999999999999 53.92499999999999 43.13999999999999 0 0 0
1674 5 28.75999999999999 55.72249999999999 44.93749999999999 0 0 0
1675 1 30.557499999999994 53.92499999999999 44.93749999999999 0 0 0
1676 5 30.557499999999994 55.72249999999999 43.13999999999999 0 0 0
1677 3 28.75999999999999 53.92499999999999 46.735 0 0 0
1678 2 28.75999999999999 55.72249999999999 48.53249999999999 0 0 0
1679 5 30.557499999999994 53.92499999999999 48.53249999999999 0 0 0
1680 4 30.557499999999994 55.72249999999999 46.735 0 0 0
1681 3 28.75999999999999 53.92499999999999 50.32999999999999 0 0 0
1682 4 28.75999999999999 55.72249999999999 52.12749999999999 0 0 0
1683 3 30.557499999999994 53.92499999999999 52.12749999999999 0 0 0
1684 4 30.557499999999994 55.72249999999999 50.32999999999999 0 0 0
1685 1 28.75999999999999 53.92499999999999 53.92499999999999 0 0 0
1686 3 28.75999999999999 55.72249999999999 55.72249999999999 0 0 0
1687 1 30.557499999999994 53.92499999999999 55.72249999999999 0 0 0
1688 4 30.557499999999994 55.72249999999999 53.92499999999999 0 0 0
1689 2 28.75999999999999 53.92499999999999 57.51999999999999 0 0 0
1690 4 28.75999999999999 55.72249999999999 59.31749999999999 0 0 0
1691 5 30.557499999999994 53.92499999999999 59.31749999999999 0 0 0
1692 2 30.557499999999994 55.72249999999999 57.51999999999999 0 0 0
1722 1 28.75999999999999 59.31749999999999 34.152499999999996 0 0 0
1723 4 30.557499999999994 57.51999999999999 34.152499999999996 0 0 0
1724 1 30.557499999999994 59.31749999999999 32.355 0 0 0
1725 3 28.75999999999999 57.51999999999999 35.949999999999996 0 0 0
1726 2 28.75999999999999 59.31749999999999 37.747499999999995 0 0 0
1727 3 30.557499999999994 57.51999999999999 37.747499999999995 0 0 0
1728 2 30.557499999999994 59.31749999999999 35.949999999999996 0 0 0
1729 2 28.75999999999999 57.51999999999999 39.544999999999995 0 0 0
1730 2 28.75999999999999 59.31749999999999 41.342499999999994 0 0 0
1731 4 30.557499999999994 57.51999999999999 41.342499999999994 0 0 0
1732 4 30.557499999999994 59.31749999999999 39.544999999999995 0 0 0
1733 5 28.75999999999999 57.51999999999999 43.13999999999999 0 0 0
1734 3 28.75999999999999 59.31749999999999 44.93749999999999 0 0 0
1735 1 30.557499999999994 57.51999999999999 44.93749999999999 0 0 0
1736 2 30.557499999999994 59.31749999999999 43.13999999999999 0 0 0
1737 3 28.75999999999999 57.51999999999999 46.735 0 0 0
1738 3 28.75999999999999 59.31749999999999 48.53249999999999 0 0 0
1739 3 30.557499999999994 57.51999999999999 48.53249999999999 0 0 0
1740 3 30.557499999999994 59.31749999999999 46.735 0 0 0
1741 1 28.75999999999999 57.51999999999999 50.32999999999999 0 0 0
1742 5 28.75999999999999 59.31749999999999 52.12749999999999 0 0 0
1743 2 30.557499999999994 57.51999999999999 52.12749999999999 0 0 0
1744 1 30.557499999999994 59.31749999999999 50.32999999999999 0 0 0
1745 3 28.75999999999999 57.51999999999999 53.92499999999999 0 0 0
1746 1 28.75999999999999 59.31749999999999 55.72249999999999 0 0 0
1747 5 30.557499999999994 57.51999999999999 55.72249999999999 0 0 0
1748 4 30.557499999999994 59.31749999999999 53.92499999999999 0 0 0
1749 4 28.75999999999999 57.51999999999999 57.51999999999999 0 0 0
1750 5 28.75999999999999 59.31749999999999 59.31749999999999 0 0 0
1751 5 30.557499999999994 57.51999999999999 59.31749999999999 0 0 0
1752 2 30.557499999999994 59.31749999999999 57.51999999999999 0 0 0
2111 2 32.355 30.557499999999994 59.31749999999999 0 0 0
2112 1 34.152499999999996 28.75999999999999 59.31749999999999 0 0 0
2113 1 34.152499999999996 30.557499999999994 57.51999999999999 0 0 0
2119 1 32.355 34.152499999999996 55.72249999999999 0 0 0
2120 3 34.152499999999996 32.355 55.72249999999999 0 0 0
2121 1 34.152499999999996 34.152499999999996 53.92499999999999 0 0 0
2122 1 32.355 32.355 57.51999999999999 0 0 0
2123 5 32.355 34.152499999999996 59.31749999999999 0 0 0
2124 5 34.152499999999996 32.355 59.31749999999999 0 0 0