model_files/Pt/Pt_10000/Pt_322/data.Pt_322_fcc_10245 (written by ASE) 

10245 	 atoms 
1  atom types
0.0                      78  xlo xhi
0.0                      78  ylo yhi
0.0                      78  zlo zhi


Atoms 

     1   1      1.9600000000000009                   33.32      39.199999999999989
     2   1                       0      37.240000000000002      37.240000000000002
     3   1      1.9600000000000009      35.280000000000001      37.240000000000002
     4   1      1.9600000000000009      37.240000000000002      35.280000000000001
     5   1                       0      35.280000000000001      39.199999999999989
     6   1                       0      37.240000000000002      41.159999999999997
     7   1      1.9600000000000009      35.280000000000001      41.159999999999997
     8   1      1.9600000000000009      37.240000000000002      39.199999999999989
     9   1      1.9600000000000009      37.240000000000002      43.119999999999997
    10   1      1.9600000000000009      39.199999999999989                   33.32
    11   1                       0      39.199999999999989      35.280000000000001
    12   1                       0      41.159999999999997      37.240000000000002
    13   1      1.9600000000000009      39.199999999999989      37.240000000000002
    14   1      1.9600000000000009      41.159999999999997      35.280000000000001
    15   1                       0      39.199999999999989      39.199999999999989
    16   1                       0      41.159999999999997      41.159999999999997
    17   1      1.9600000000000009      39.199999999999989      41.159999999999997
    18   1      1.9600000000000009      41.159999999999997      39.199999999999989
    19   1                       0      39.199999999999989      43.119999999999997
    20   1      1.9600000000000009      39.199999999999989      45.079999999999998
    21   1      1.9600000000000009      41.159999999999997      43.119999999999997
    22   1      1.9600000000000009      43.119999999999997      37.240000000000002
    23   1                       0      43.119999999999997      39.199999999999989
    24   1      1.9600000000000009      43.119999999999997      41.159999999999997
    25   1      1.9600000000000009      45.079999999999998      39.199999999999989
    26   1      5.8800000000000017      29.399999999999999      39.199999999999989
    27   1      3.9199999999999946                   33.32      37.240000000000002
    28   1      5.8800000000000017      31.359999999999999      37.240000000000002
    29   1      5.8800000000000017                   33.32      35.280000000000001
    30   1      3.9199999999999946      31.359999999999999      39.199999999999989
    31   1      3.9199999999999946                   33.32      41.159999999999997
    32   1      5.8800000000000017      31.359999999999999      41.159999999999997
    33   1      5.8800000000000017                   33.32      39.199999999999989
    34   1      5.8800000000000017                   33.32      43.119999999999997
    35   1      3.9199999999999946      37.240000000000002                   33.32
    36   1      5.8800000000000017      35.280000000000001                   33.32
    37   1      5.8800000000000017      37.240000000000002      31.359999999999999
    38   1      3.9199999999999946      35.280000000000001      35.280000000000001
    39   1      3.9199999999999946      37.240000000000002      37.240000000000002
    40   1      5.8800000000000017      35.280000000000001      37.240000000000002
    41   1      5.8800000000000017      37.240000000000002      35.280000000000001
    42   1      3.9199999999999946      35.280000000000001      39.199999999999989
    43   1      3.9199999999999946      37.240000000000002      41.159999999999997
    44   1      5.8800000000000017      35.280000000000001      41.159999999999997
    45   1      5.8800000000000017      37.240000000000002      39.199999999999989
    46   1      3.9199999999999946      35.280000000000001      43.119999999999997
    47   1      3.9199999999999946      37.240000000000002      45.079999999999998
    48   1      5.8800000000000017      35.280000000000001      45.079999999999998
    49   1      5.8800000000000017      37.240000000000002      43.119999999999997
    50   1      5.8800000000000017      37.240000000000002      47.039999999999999
    51   1      5.8800000000000017      39.199999999999989      29.399999999999999
    52   1      3.9199999999999946      39.199999999999989      31.359999999999999
    53   1      3.9199999999999946      41.159999999999997                   33.32
    54   1      5.8800000000000017      39.199999999999989                   33.32
    55   1      5.8800000000000017      41.159999999999997      31.359999999999999
    56   1      3.9199999999999946      39.199999999999989      35.280000000000001
    57   1      3.9199999999999946      41.159999999999997      37.240000000000002
    58   1      5.8800000000000017      39.199999999999989      37.240000000000002
    59   1      5.8800000000000017      41.159999999999997      35.280000000000001
    60   1      3.9199999999999946      39.199999999999989      39.199999999999989
    61   1      3.9199999999999946      41.159999999999997      41.159999999999997
    62   1      5.8800000000000017      39.199999999999989      41.159999999999997
    63   1      5.8800000000000017      41.159999999999997      39.199999999999989
    64   1      3.9199999999999946      39.199999999999989      43.119999999999997
    65   1      3.9199999999999946      41.159999999999997      45.079999999999998
    66   1      5.8800000000000017      39.199999999999989      45.079999999999998
    67   1      5.8800000000000017      41.159999999999997      43.119999999999997
    68   1      3.9199999999999946      39.199999999999989      47.039999999999999
    69   1      5.8800000000000017      39.199999999999989                      49
    70   1      5.8800000000000017      41.159999999999997      47.039999999999999
    71   1      5.8800000000000017      43.119999999999997                   33.32
    72   1      3.9199999999999946      43.119999999999997      35.280000000000001
    73   1      3.9199999999999946      45.079999999999998      37.240000000000002
    74   1      5.8800000000000017      43.119999999999997      37.240000000000002
    75   1      5.8800000000000017      45.079999999999998      35.280000000000001
    76   1      3.9199999999999946      43.119999999999997      39.199999999999989
    77   1      3.9199999999999946      45.079999999999998      41.159999999999997
    78   1      5.8800000000000017      43.119999999999997      41.159999999999997
    79   1      5.8800000000000017      45.079999999999998      39.199999999999989
    80   1      3.9199999999999946      43.119999999999997      43.119999999999997
    81   1      5.8800000000000017      43.119999999999997      45.079999999999998
    82   1      5.8800000000000017      45.079999999999998      43.119999999999997
    83   1      5.8800000000000017      47.039999999999999      37.240000000000002
    84   1      3.9199999999999946      47.039999999999999      39.199999999999989
    85   1      5.8800000000000017      47.039999999999999      41.159999999999997
    86   1      5.8800000000000017                      49      39.199999999999989
    87   1      9.7999999999999972      21.559999999999999      39.199999999999989
    88   1      7.8399999999999954      25.479999999999997      37.240000000000002
    89   1      9.7999999999999972      23.519999999999996      37.240000000000002
    90   1      9.7999999999999972      25.479999999999997      35.280000000000001
    91   1      7.8399999999999954      23.519999999999996      39.199999999999989
    92   1      7.8399999999999954      25.479999999999997      41.159999999999997
    93   1      9.7999999999999972      23.519999999999996      41.159999999999997
    94   1      9.7999999999999972      25.479999999999997      39.199999999999989
    95   1      9.7999999999999972      25.479999999999997      43.119999999999997
    96   1      7.8399999999999954      29.399999999999999                   33.32
    97   1      9.7999999999999972      27.439999999999994                   33.32
    98   1      9.7999999999999972      29.399999999999999      31.359999999999999
    99   1      7.8399999999999954      27.439999999999994      35.280000000000001
   100   1      7.8399999999999954      29.399999999999999      37.240000000000002
   101   1      9.7999999999999972      27.439999999999994      37.240000000000002
   102   1      9.7999999999999972      29.399999999999999      35.280000000000001
   103   1      7.8399999999999954      27.439999999999994      39.199999999999989
   104   1      7.8399999999999954      29.399999999999999      41.159999999999997
   105   1      9.7999999999999972      27.439999999999994      41.159999999999997
   106   1      9.7999999999999972      29.399999999999999      39.199999999999989
   107   1      7.8399999999999954      27.439999999999994      43.119999999999997
   108   1      7.8399999999999954      29.399999999999999      45.079999999999998
   109   1      9.7999999999999972      27.439999999999994      45.079999999999998
   110   1      9.7999999999999972      29.399999999999999      43.119999999999997
   111   1      9.7999999999999972      29.399999999999999      47.039999999999999
   112   1      7.8399999999999954                   33.32      29.399999999999999
   113   1      9.7999999999999972      31.359999999999999      29.399999999999999
   114   1      9.7999999999999972                   33.32      27.439999999999994
   115   1      7.8399999999999954      31.359999999999999      31.359999999999999
   116   1      7.8399999999999954                   33.32                   33.32
   117   1      9.7999999999999972      31.359999999999999                   33.32
   118   1      9.7999999999999972                   33.32      31.359999999999999
   119   1      7.8399999999999954      31.359999999999999      35.280000000000001
   120   1      7.8399999999999954                   33.32      37.240000000000002
   121   1      9.7999999999999972      31.359999999999999      37.240000000000002
   122   1      9.7999999999999972                   33.32      35.280000000000001
   123   1      7.8399999999999954      31.359999999999999      39.199999999999989
   124   1      7.8399999999999954                   33.32      41.159999999999997
   125   1      9.7999999999999972      31.359999999999999      41.159999999999997
   126   1      9.7999999999999972                   33.32      39.199999999999989
   127   1      7.8399999999999954      31.359999999999999      43.119999999999997
   128   1      7.8399999999999954                   33.32      45.079999999999998
   129   1      9.7999999999999972      31.359999999999999      45.079999999999998
   130   1      9.7999999999999972                   33.32      43.119999999999997
   131   1      7.8399999999999954      31.359999999999999      47.039999999999999
   132   1      7.8399999999999954                   33.32                      49
   133   1      9.7999999999999972      31.359999999999999                      49
   134   1      9.7999999999999972                   33.32      47.039999999999999
   135   1      9.7999999999999972                   33.32      50.959999999999994
   136   1      7.8399999999999954      37.240000000000002      25.479999999999997
   137   1      9.7999999999999972      35.280000000000001      25.479999999999997
   138   1      9.7999999999999972      37.240000000000002      23.519999999999996
   139   1      7.8399999999999954      35.280000000000001      27.439999999999994
   140   1      7.8399999999999954      37.240000000000002      29.399999999999999
   141   1      9.7999999999999972      35.280000000000001      29.399999999999999
   142   1      9.7999999999999972      37.240000000000002      27.439999999999994
   143   1      7.8399999999999954      35.280000000000001      31.359999999999999
   144   1      7.8399999999999954      37.240000000000002                   33.32
   145   1      9.7999999999999972      35.280000000000001                   33.32
   146   1      9.7999999999999972      37.240000000000002      31.359999999999999
   147   1      7.8399999999999954      35.280000000000001      35.280000000000001
   148   1      7.8399999999999954      37.240000000000002      37.240000000000002
   149   1      9.7999999999999972      35.280000000000001      37.240000000000002
   150   1      9.7999999999999972      37.240000000000002      35.280000000000001
   151   1      7.8399999999999954      35.280000000000001      39.199999999999989
   152   1      7.8399999999999954      37.240000000000002      41.159999999999997
   153   1      9.7999999999999972      35.280000000000001      41.159999999999997
   154   1      9.7999999999999972      37.240000000000002      39.199999999999989
   155   1      7.8399999999999954      35.280000000000001      43.119999999999997
   156   1      7.8399999999999954      37.240000000000002      45.079999999999998
   157   1      9.7999999999999972      35.280000000000001      45.079999999999998
   158   1      9.7999999999999972      37.240000000000002      43.119999999999997
   159   1      7.8399999999999954      35.280000000000001      47.039999999999999
   160   1      7.8399999999999954      37.240000000000002                      49
   161   1      9.7999999999999972      35.280000000000001                      49
   162   1      9.7999999999999972      37.240000000000002      47.039999999999999
   163   1      7.8399999999999954      35.280000000000001      50.959999999999994
   164   1      7.8399999999999954      37.240000000000002      52.919999999999987
   165   1      9.7999999999999972      35.280000000000001      52.919999999999987
   166   1      9.7999999999999972      37.240000000000002      50.959999999999994
   167   1      9.7999999999999972      37.240000000000002      54.879999999999988
   168   1      9.7999999999999972      39.199999999999989      21.559999999999999
   169   1      7.8399999999999954      39.199999999999989      23.519999999999996
   170   1      7.8399999999999954      41.159999999999997      25.479999999999997
   171   1      9.7999999999999972      39.199999999999989      25.479999999999997
   172   1      9.7999999999999972      41.159999999999997      23.519999999999996
   173   1      7.8399999999999954      39.199999999999989      27.439999999999994
   174   1      7.8399999999999954      41.159999999999997      29.399999999999999
   175   1      9.7999999999999972      39.199999999999989      29.399999999999999
   176   1      9.7999999999999972      41.159999999999997      27.439999999999994
   177   1      7.8399999999999954      39.199999999999989      31.359999999999999
   178   1      7.8399999999999954      41.159999999999997                   33.32
   179   1      9.7999999999999972      39.199999999999989                   33.32
   180   1      9.7999999999999972      41.159999999999997      31.359999999999999
   181   1      7.8399999999999954      39.199999999999989      35.280000000000001
   182   1      7.8399999999999954      41.159999999999997      37.240000000000002
   183   1      9.7999999999999972      39.199999999999989      37.240000000000002
   184   1      9.7999999999999972      41.159999999999997      35.280000000000001
   185   1      7.8399999999999954      39.199999999999989      39.199999999999989
   186   1      7.8399999999999954      41.159999999999997      41.159999999999997
   187   1      9.7999999999999972      39.199999999999989      41.159999999999997
   188   1      9.7999999999999972      41.159999999999997      39.199999999999989
   189   1      7.8399999999999954      39.199999999999989      43.119999999999997
   190   1      7.8399999999999954      41.159999999999997      45.079999999999998
   191   1      9.7999999999999972      39.199999999999989      45.079999999999998
   192   1      9.7999999999999972      41.159999999999997      43.119999999999997
   193   1      7.8399999999999954      39.199999999999989      47.039999999999999
   194   1      7.8399999999999954      41.159999999999997                      49
   195   1      9.7999999999999972      39.199999999999989                      49
   196   1      9.7999999999999972      41.159999999999997      47.039999999999999
   197   1      7.8399999999999954      39.199999999999989      50.959999999999994
   198   1      7.8399999999999954      41.159999999999997      52.919999999999987
   199   1      9.7999999999999972      39.199999999999989      52.919999999999987
   200   1      9.7999999999999972      41.159999999999997      50.959999999999994
   201   1      7.8399999999999954      39.199999999999989      54.879999999999988
   202   1      9.7999999999999972      39.199999999999989      56.839999999999989
   203   1      9.7999999999999972      41.159999999999997      54.879999999999988
   204   1      9.7999999999999972      43.119999999999997      25.479999999999997
   205   1      7.8399999999999954      43.119999999999997      27.439999999999994
   206   1      7.8399999999999954      45.079999999999998      29.399999999999999
   207   1      9.7999999999999972      43.119999999999997      29.399999999999999
   208   1      9.7999999999999972      45.079999999999998      27.439999999999994
   209   1      7.8399999999999954      43.119999999999997      31.359999999999999
   210   1      7.8399999999999954      45.079999999999998                   33.32
   211   1      9.7999999999999972      43.119999999999997                   33.32
   212   1      9.7999999999999972      45.079999999999998      31.359999999999999
   213   1      7.8399999999999954      43.119999999999997      35.280000000000001
   214   1      7.8399999999999954      45.079999999999998      37.240000000000002
   215   1      9.7999999999999972      43.119999999999997      37.240000000000002
   216   1      9.7999999999999972      45.079999999999998      35.280000000000001
   217   1      7.8399999999999954      43.119999999999997      39.199999999999989
   218   1      7.8399999999999954      45.079999999999998      41.159999999999997
   219   1      9.7999999999999972      43.119999999999997      41.159999999999997
   220   1      9.7999999999999972      45.079999999999998      39.199999999999989
   221   1      7.8399999999999954      43.119999999999997      43.119999999999997
   222   1      7.8399999999999954      45.079999999999998      45.079999999999998
   223   1      9.7999999999999972      43.119999999999997      45.079999999999998
   224   1      9.7999999999999972      45.079999999999998      43.119999999999997
   225   1      7.8399999999999954      43.119999999999997      47.039999999999999
   226   1      7.8399999999999954      45.079999999999998                      49
   227   1      9.7999999999999972      43.119999999999997                      49
   228   1      9.7999999999999972      45.079999999999998      47.039999999999999
   229   1      7.8399999999999954      43.119999999999997      50.959999999999994
   230   1      9.7999999999999972      43.119999999999997      52.919999999999987
   231   1      9.7999999999999972      45.079999999999998      50.959999999999994
   232   1      9.7999999999999972      47.039999999999999      29.399999999999999
   233   1      7.8399999999999954      47.039999999999999      31.359999999999999
   234   1      7.8399999999999954                      49                   33.32
   235   1      9.7999999999999972      47.039999999999999                   33.32
   236   1      9.7999999999999972                      49      31.359999999999999
   237   1      7.8399999999999954      47.039999999999999      35.280000000000001
   238   1      7.8399999999999954                      49      37.240000000000002
   239   1      9.7999999999999972      47.039999999999999      37.240000000000002
   240   1      9.7999999999999972                      49      35.280000000000001
   241   1      7.8399999999999954      47.039999999999999      39.199999999999989
   242   1      7.8399999999999954                      49      41.159999999999997
   243   1      9.7999999999999972      47.039999999999999      41.159999999999997
   244   1      9.7999999999999972                      49      39.199999999999989
   245   1      7.8399999999999954      47.039999999999999      43.119999999999997
   246   1      7.8399999999999954                      49      45.079999999999998
   247   1      9.7999999999999972      47.039999999999999      45.079999999999998
   248   1      9.7999999999999972                      49      43.119999999999997
   249   1      7.8399999999999954      47.039999999999999      47.039999999999999
   250   1      9.7999999999999972      47.039999999999999                      49
   251   1      9.7999999999999972                      49      47.039999999999999
   252   1      9.7999999999999972      50.959999999999994                   33.32
   253   1      7.8399999999999954      50.959999999999994      35.280000000000001
   254   1      7.8399999999999954      52.919999999999987      37.240000000000002
   255   1      9.7999999999999972      50.959999999999994      37.240000000000002
   256   1      9.7999999999999972      52.919999999999987      35.280000000000001
   257   1      7.8399999999999954      50.959999999999994      39.199999999999989
   258   1      7.8399999999999954      52.919999999999987      41.159999999999997
   259   1      9.7999999999999972      50.959999999999994      41.159999999999997
   260   1      9.7999999999999972      52.919999999999987      39.199999999999989
   261   1      7.8399999999999954      50.959999999999994      43.119999999999997
   262   1      9.7999999999999972      50.959999999999994      45.079999999999998
   263   1      9.7999999999999972      52.919999999999987      43.119999999999997
   264   1      9.7999999999999972      54.879999999999988      37.240000000000002
   265   1      7.8399999999999954      54.879999999999988      39.199999999999989
   266   1      9.7999999999999972      54.879999999999988      41.159999999999997
   267   1      9.7999999999999972      56.839999999999989      39.199999999999989
   268   1      13.719999999999997      17.640000000000001      39.199999999999989
   269   1      11.759999999999998      21.559999999999999      37.240000000000002
   270   1      13.719999999999997      19.599999999999994      37.240000000000002
   271   1      13.719999999999997      21.559999999999999      35.280000000000001
   272   1      11.759999999999998      19.599999999999994      39.199999999999989
   273   1      11.759999999999998      21.559999999999999      41.159999999999997
   274   1      13.719999999999997      19.599999999999994      41.159999999999997
   275   1      13.719999999999997      21.559999999999999      39.199999999999989
   276   1      13.719999999999997      21.559999999999999      43.119999999999997
   277   1      11.759999999999998      25.479999999999997                   33.32
   278   1      13.719999999999997      23.519999999999996                   33.32
   279   1      13.719999999999997      25.479999999999997      31.359999999999999
   280   1      11.759999999999998      23.519999999999996      35.280000000000001
   281   1      11.759999999999998      25.479999999999997      37.240000000000002
   282   1      13.719999999999997      23.519999999999996      37.240000000000002
   283   1      13.719999999999997      25.479999999999997      35.280000000000001
   284   1      11.759999999999998      23.519999999999996      39.199999999999989
   285   1      11.759999999999998      25.479999999999997      41.159999999999997
   286   1      13.719999999999997      23.519999999999996      41.159999999999997
   287   1      13.719999999999997      25.479999999999997      39.199999999999989
   288   1      11.759999999999998      23.519999999999996      43.119999999999997
   289   1      11.759999999999998      25.479999999999997      45.079999999999998
   290   1      13.719999999999997      23.519999999999996      45.079999999999998
   291   1      13.719999999999997      25.479999999999997      43.119999999999997
   292   1      13.719999999999997      25.479999999999997      47.039999999999999
   293   1      11.759999999999998      29.399999999999999      29.399999999999999
   294   1      13.719999999999997      27.439999999999994      29.399999999999999
   295   1      13.719999999999997      29.399999999999999      27.439999999999994
   296   1      11.759999999999998      27.439999999999994      31.359999999999999
   297   1      11.759999999999998      29.399999999999999                   33.32
   298   1      13.719999999999997      27.439999999999994                   33.32
   299   1      13.719999999999997      29.399999999999999      31.359999999999999
   300   1      11.759999999999998      27.439999999999994      35.280000000000001
   301   1      11.759999999999998      29.399999999999999      37.240000000000002
   302   1      13.719999999999997      27.439999999999994      37.240000000000002
   303   1      13.719999999999997      29.399999999999999      35.280000000000001
   304   1      11.759999999999998      27.439999999999994      39.199999999999989
   305   1      11.759999999999998      29.399999999999999      41.159999999999997
   306   1      13.719999999999997      27.439999999999994      41.159999999999997
   307   1      13.719999999999997      29.399999999999999      39.199999999999989
   308   1      11.759999999999998      27.439999999999994      43.119999999999997
   309   1      11.759999999999998      29.399999999999999      45.079999999999998
   310   1      13.719999999999997      27.439999999999994      45.079999999999998
   311   1      13.719999999999997      29.399999999999999      43.119999999999997
   312   1      11.759999999999998      27.439999999999994      47.039999999999999
   313   1      11.759999999999998      29.399999999999999                      49
   314   1      13.719999999999997      27.439999999999994                      49
   315   1      13.719999999999997      29.399999999999999      47.039999999999999
   316   1      13.719999999999997      29.399999999999999      50.959999999999994
   317   1      11.759999999999998                   33.32      25.479999999999997
   318   1      13.719999999999997      31.359999999999999      25.479999999999997
   319   1      13.719999999999997                   33.32      23.519999999999996
   320   1      11.759999999999998      31.359999999999999      27.439999999999994
   321   1      11.759999999999998                   33.32      29.399999999999999
   322   1      13.719999999999997      31.359999999999999      29.399999999999999
   323   1      13.719999999999997                   33.32      27.439999999999994
   324   1      11.759999999999998      31.359999999999999      31.359999999999999
   325   1      11.759999999999998                   33.32                   33.32
   326   1      13.719999999999997      31.359999999999999                   33.32
   327   1      13.719999999999997                   33.32      31.359999999999999
   328   1      11.759999999999998      31.359999999999999      35.280000000000001
   329   1      11.759999999999998                   33.32      37.240000000000002
   330   1      13.719999999999997      31.359999999999999      37.240000000000002
   331   1      13.719999999999997                   33.32      35.280000000000001
   332   1      11.759999999999998      31.359999999999999      39.199999999999989
   333   1      11.759999999999998                   33.32      41.159999999999997
   334   1      13.719999999999997      31.359999999999999      41.159999999999997
   335   1      13.719999999999997                   33.32      39.199999999999989
   336   1      11.759999999999998      31.359999999999999      43.119999999999997
   337   1      11.759999999999998                   33.32      45.079999999999998
   338   1      13.719999999999997      31.359999999999999      45.079999999999998
   339   1      13.719999999999997                   33.32      43.119999999999997
   340   1      11.759999999999998      31.359999999999999      47.039999999999999
   341   1      11.759999999999998                   33.32                      49
   342   1      13.719999999999997      31.359999999999999                      49
   343   1      13.719999999999997                   33.32      47.039999999999999
   344   1      11.759999999999998      31.359999999999999      50.959999999999994
   345   1      11.759999999999998                   33.32      52.919999999999987
   346   1      13.719999999999997      31.359999999999999      52.919999999999987
   347   1      13.719999999999997                   33.32      50.959999999999994
   348   1      13.719999999999997                   33.32      54.879999999999988
   349   1      11.759999999999998      37.240000000000002      21.559999999999999
   350   1      13.719999999999997      35.280000000000001      21.559999999999999
   351   1      13.719999999999997      37.240000000000002      19.599999999999994
   352   1      11.759999999999998      35.280000000000001      23.519999999999996
   353   1      11.759999999999998      37.240000000000002      25.479999999999997
   354   1      13.719999999999997      35.280000000000001      25.479999999999997
   355   1      13.719999999999997      37.240000000000002      23.519999999999996
   356   1      11.759999999999998      35.280000000000001      27.439999999999994
   357   1      11.759999999999998      37.240000000000002      29.399999999999999
   358   1      13.719999999999997      35.280000000000001      29.399999999999999