model_files/Ag/Ag_30000/Ag_544/data.Ag_544_fcc_30001 (written by ASE) 

30001 	 atoms 
1  atom types
0.0                     130  xlo xhi
0.0                     130  ylo yhi
0.0                     130  zlo zhi


Atoms 

     1   1      2.0449999999999946      63.395000000000003      65.440000000000012
     2   1      2.0449999999999946      65.440000000000012      63.395000000000003
     3   1                       0      65.440000000000012      65.440000000000012
     4   1      2.0449999999999946      65.440000000000012      67.484999999999999
     5   1      2.0449999999999946      67.484999999999999      65.440000000000012
     6   1       6.134999999999998                  59.305      65.440000000000012
     7   1      4.0899999999999972      63.395000000000003      63.395000000000003
     8   1       6.134999999999998      61.349999999999994      63.395000000000003
     9   1       6.134999999999998      63.395000000000003      61.349999999999994
    10   1      4.0899999999999972      61.349999999999994      65.440000000000012
    11   1      4.0899999999999972      63.395000000000003      67.484999999999999
    12   1       6.134999999999998      61.349999999999994      67.484999999999999
    13   1       6.134999999999998      63.395000000000003      65.440000000000012
    14   1       6.134999999999998      63.395000000000003      69.530000000000001
    15   1       6.134999999999998      65.440000000000012                  59.305
    16   1      4.0899999999999972      65.440000000000012      61.349999999999994
    17   1      4.0899999999999972      67.484999999999999      63.395000000000003
    18   1       6.134999999999998      65.440000000000012      63.395000000000003
    19   1       6.134999999999998      67.484999999999999      61.349999999999994
    20   1      4.0899999999999972      65.440000000000012      65.440000000000012
    21   1      4.0899999999999972      67.484999999999999      67.484999999999999
    22   1       6.134999999999998      65.440000000000012      67.484999999999999
    23   1       6.134999999999998      67.484999999999999      65.440000000000012
    24   1      4.0899999999999972      65.440000000000012      69.530000000000001
    25   1       6.134999999999998      65.440000000000012      71.575000000000003
    26   1       6.134999999999998      67.484999999999999      69.530000000000001
    27   1       6.134999999999998      69.530000000000001      63.395000000000003
    28   1      4.0899999999999972      69.530000000000001      65.440000000000012
    29   1       6.134999999999998      69.530000000000001      67.484999999999999
    30   1       6.134999999999998      71.575000000000003      65.440000000000012
    31   1      10.224999999999994      51.125000000000007      65.440000000000012
    32   1      10.224999999999994      53.169999999999995      63.395000000000003
    33   1      10.224999999999994      55.215000000000003      61.349999999999994
    34   1      10.224999999999994      53.169999999999995      67.484999999999999
    35   1      10.224999999999994      55.215000000000003      65.440000000000012
    36   1      10.224999999999994      55.215000000000003      69.530000000000001
    37   1      10.224999999999994      57.259999999999991                  59.305
    38   1      10.224999999999994                  59.305      57.259999999999991
    39   1      8.1799999999999944                  59.305      63.395000000000003
    40   1      10.224999999999994      57.259999999999991      63.395000000000003
    41   1      10.224999999999994                  59.305      61.349999999999994
    42   1      8.1799999999999944      57.259999999999991      65.440000000000012
    43   1      8.1799999999999944                  59.305      67.484999999999999
    44   1      10.224999999999994      57.259999999999991      67.484999999999999
    45   1      10.224999999999994                  59.305      65.440000000000012
    46   1      10.224999999999994      57.259999999999991      71.575000000000003
    47   1      10.224999999999994                  59.305      69.530000000000001
    48   1      10.224999999999994                  59.305      73.620000000000005
    49   1      10.224999999999994      61.349999999999994      55.215000000000003
    50   1      10.224999999999994      63.395000000000003      53.169999999999995
    51   1      8.1799999999999944      63.395000000000003                  59.305
    52   1      10.224999999999994      61.349999999999994                  59.305
    53   1      10.224999999999994      63.395000000000003      57.259999999999991
    54   1      8.1799999999999944      61.349999999999994      61.349999999999994
    55   1      8.1799999999999944      63.395000000000003      63.395000000000003
    56   1      10.224999999999994      61.349999999999994      63.395000000000003
    57   1      10.224999999999994      63.395000000000003      61.349999999999994
    58   1      8.1799999999999944      61.349999999999994      65.440000000000012
    59   1      8.1799999999999944      63.395000000000003      67.484999999999999
    60   1      10.224999999999994      61.349999999999994      67.484999999999999
    61   1      10.224999999999994      63.395000000000003      65.440000000000012
    62   1      8.1799999999999944      61.349999999999994      69.530000000000001
    63   1      8.1799999999999944      63.395000000000003      71.575000000000003
    64   1      10.224999999999994      61.349999999999994      71.575000000000003
    65   1      10.224999999999994      63.395000000000003      69.530000000000001
    66   1      10.224999999999994      61.349999999999994      75.664999999999992
    67   1      10.224999999999994      63.395000000000003      73.620000000000005
    68   1      10.224999999999994      63.395000000000003      77.709999999999994
    69   1      10.224999999999994      65.440000000000012      51.125000000000007
    70   1      10.224999999999994      65.440000000000012      55.215000000000003
    71   1      10.224999999999994      67.484999999999999      53.169999999999995
    72   1      8.1799999999999944      65.440000000000012      57.259999999999991
    73   1      8.1799999999999944      67.484999999999999                  59.305
    74   1      10.224999999999994      65.440000000000012                  59.305
    75   1      10.224999999999994      67.484999999999999      57.259999999999991
    76   1      8.1799999999999944      65.440000000000012      61.349999999999994
    77   1      8.1799999999999944      67.484999999999999      63.395000000000003
    78   1      10.224999999999994      65.440000000000012      63.395000000000003
    79   1      10.224999999999994      67.484999999999999      61.349999999999994
    80   1      8.1799999999999944      65.440000000000012      65.440000000000012
    81   1      8.1799999999999944      67.484999999999999      67.484999999999999
    82   1      10.224999999999994      65.440000000000012      67.484999999999999
    83   1      10.224999999999994      67.484999999999999      65.440000000000012
    84   1      8.1799999999999944      65.440000000000012      69.530000000000001
    85   1      8.1799999999999944      67.484999999999999      71.575000000000003
    86   1      10.224999999999994      65.440000000000012      71.575000000000003
    87   1      10.224999999999994      67.484999999999999      69.530000000000001
    88   1      8.1799999999999944      65.440000000000012      73.620000000000005
    89   1      10.224999999999994      65.440000000000012      75.664999999999992
    90   1      10.224999999999994      67.484999999999999      73.620000000000005
    91   1      10.224999999999994      65.440000000000012       79.75500000000001
    92   1      10.224999999999994      67.484999999999999      77.709999999999994
    93   1      10.224999999999994      69.530000000000001      55.215000000000003
    94   1      10.224999999999994      69.530000000000001                  59.305
    95   1      10.224999999999994      71.575000000000003      57.259999999999991
    96   1      8.1799999999999944      69.530000000000001      61.349999999999994
    97   1      8.1799999999999944      71.575000000000003      63.395000000000003
    98   1      10.224999999999994      69.530000000000001      63.395000000000003
    99   1      10.224999999999994      71.575000000000003      61.349999999999994
   100   1      8.1799999999999944      69.530000000000001      65.440000000000012
   101   1      8.1799999999999944      71.575000000000003      67.484999999999999
   102   1      10.224999999999994      69.530000000000001      67.484999999999999
   103   1      10.224999999999994      71.575000000000003      65.440000000000012
   104   1      8.1799999999999944      69.530000000000001      69.530000000000001
   105   1      10.224999999999994      69.530000000000001      71.575000000000003
   106   1      10.224999999999994      71.575000000000003      69.530000000000001
   107   1      10.224999999999994      69.530000000000001      75.664999999999992
   108   1      10.224999999999994      71.575000000000003      73.620000000000005
   109   1      10.224999999999994      73.620000000000005                  59.305
   110   1      10.224999999999994      73.620000000000005      63.395000000000003
   111   1      10.224999999999994      75.664999999999992      61.349999999999994
   112   1      8.1799999999999944      73.620000000000005      65.440000000000012
   113   1      10.224999999999994      73.620000000000005      67.484999999999999
   114   1      10.224999999999994      75.664999999999992      65.440000000000012
   115   1      10.224999999999994      73.620000000000005      71.575000000000003
   116   1      10.224999999999994      75.664999999999992      69.530000000000001
   117   1      10.224999999999994      77.709999999999994      63.395000000000003
   118   1      10.224999999999994      77.709999999999994      67.484999999999999
   119   1      10.224999999999994       79.75500000000001      65.440000000000012
   120   1      14.314999999999998      47.034999999999997      65.440000000000012
   121   1      12.269999999999996      51.125000000000007      63.395000000000003
   122   1      14.314999999999998      49.079999999999998      63.395000000000003
   123   1      14.314999999999998      51.125000000000007      61.349999999999994
   124   1      12.269999999999996      49.079999999999998      65.440000000000012
   125   1      12.269999999999996      51.125000000000007      67.484999999999999
   126   1      14.314999999999998      49.079999999999998      67.484999999999999
   127   1      14.314999999999998      51.125000000000007      65.440000000000012
   128   1      14.314999999999998      51.125000000000007      69.530000000000001
   129   1      12.269999999999996      55.215000000000003                  59.305
   130   1      14.314999999999998      53.169999999999995                  59.305
   131   1      14.314999999999998      55.215000000000003      57.259999999999991
   132   1      12.269999999999996      53.169999999999995      61.349999999999994
   133   1      12.269999999999996      55.215000000000003      63.395000000000003
   134   1      14.314999999999998      53.169999999999995      63.395000000000003
   135   1      14.314999999999998      55.215000000000003      61.349999999999994
   136   1      12.269999999999996      53.169999999999995      65.440000000000012
   137   1      12.269999999999996      55.215000000000003      67.484999999999999
   138   1      14.314999999999998      53.169999999999995      67.484999999999999
   139   1      14.314999999999998      55.215000000000003      65.440000000000012
   140   1      12.269999999999996      53.169999999999995      69.530000000000001
   141   1      12.269999999999996      55.215000000000003      71.575000000000003
   142   1      14.314999999999998      53.169999999999995      71.575000000000003
   143   1      14.314999999999998      55.215000000000003      69.530000000000001
   144   1      14.314999999999998      55.215000000000003      73.620000000000005
   145   1      12.269999999999996                  59.305      55.215000000000003
   146   1      14.314999999999998      57.259999999999991      55.215000000000003
   147   1      14.314999999999998                  59.305      53.169999999999995
   148   1      12.269999999999996      57.259999999999991      57.259999999999991
   149   1      12.269999999999996                  59.305                  59.305
   150   1      14.314999999999998      57.259999999999991                  59.305
   151   1      14.314999999999998                  59.305      57.259999999999991
   152   1      12.269999999999996      57.259999999999991      61.349999999999994
   153   1      12.269999999999996                  59.305      63.395000000000003
   154   1      14.314999999999998      57.259999999999991      63.395000000000003
   155   1      14.314999999999998                  59.305      61.349999999999994
   156   1      12.269999999999996      57.259999999999991      65.440000000000012
   157   1      12.269999999999996                  59.305      67.484999999999999
   158   1      14.314999999999998      57.259999999999991      67.484999999999999
   159   1      14.314999999999998                  59.305      65.440000000000012
   160   1      12.269999999999996      57.259999999999991      69.530000000000001
   161   1      12.269999999999996                  59.305      71.575000000000003
   162   1      14.314999999999998      57.259999999999991      71.575000000000003
   163   1      14.314999999999998                  59.305      69.530000000000001
   164   1      12.269999999999996      57.259999999999991      73.620000000000005
   165   1      12.269999999999996                  59.305      75.664999999999992
   166   1      14.314999999999998      57.259999999999991      75.664999999999992
   167   1      14.314999999999998                  59.305      73.620000000000005
   168   1      14.314999999999998                  59.305      77.709999999999994
   169   1      12.269999999999996      63.395000000000003      51.125000000000007
   170   1      14.314999999999998      61.349999999999994      51.125000000000007
   171   1      14.314999999999998      63.395000000000003      49.079999999999998
   172   1      12.269999999999996      61.349999999999994      53.169999999999995
   173   1      12.269999999999996      63.395000000000003      55.215000000000003
   174   1      14.314999999999998      61.349999999999994      55.215000000000003
   175   1      14.314999999999998      63.395000000000003      53.169999999999995
   176   1      12.269999999999996      61.349999999999994      57.259999999999991
   177   1      12.269999999999996      63.395000000000003                  59.305
   178   1      14.314999999999998      61.349999999999994                  59.305
   179   1      14.314999999999998      63.395000000000003      57.259999999999991
   180   1      12.269999999999996      61.349999999999994      61.349999999999994
   181   1      12.269999999999996      63.395000000000003      63.395000000000003
   182   1      14.314999999999998      61.349999999999994      63.395000000000003
   183   1      14.314999999999998      63.395000000000003      61.349999999999994
   184   1      12.269999999999996      61.349999999999994      65.440000000000012
   185   1      12.269999999999996      63.395000000000003      67.484999999999999
   186   1      14.314999999999998      61.349999999999994      67.484999999999999
   187   1      14.314999999999998      63.395000000000003      65.440000000000012
   188   1      12.269999999999996      61.349999999999994      69.530000000000001
   189   1      12.269999999999996      63.395000000000003      71.575000000000003
   190   1      14.314999999999998      61.349999999999994      71.575000000000003
   191   1      14.314999999999998      63.395000000000003      69.530000000000001
   192   1      12.269999999999996      61.349999999999994      73.620000000000005
   193   1      12.269999999999996      63.395000000000003      75.664999999999992
   194   1      14.314999999999998      61.349999999999994      75.664999999999992
   195   1      14.314999999999998      63.395000000000003      73.620000000000005
   196   1      12.269999999999996      61.349999999999994      77.709999999999994
   197   1      12.269999999999996      63.395000000000003       79.75500000000001
   198   1      14.314999999999998      61.349999999999994       79.75500000000001
   199   1      14.314999999999998      63.395000000000003      77.709999999999994
   200   1      14.314999999999998      63.395000000000003      81.799999999999997
   201   1      14.314999999999998      65.440000000000012      47.034999999999997
   202   1      12.269999999999996      65.440000000000012      49.079999999999998
   203   1      12.269999999999996      67.484999999999999      51.125000000000007
   204   1      14.314999999999998      65.440000000000012      51.125000000000007
   205   1      14.314999999999998      67.484999999999999      49.079999999999998
   206   1      12.269999999999996      65.440000000000012      53.169999999999995
   207   1      12.269999999999996      67.484999999999999      55.215000000000003
   208   1      14.314999999999998      65.440000000000012      55.215000000000003
   209   1      14.314999999999998      67.484999999999999      53.169999999999995
   210   1      12.269999999999996      65.440000000000012      57.259999999999991
   211   1      12.269999999999996      67.484999999999999                  59.305
   212   1      14.314999999999998      65.440000000000012                  59.305
   213   1      14.314999999999998      67.484999999999999      57.259999999999991
   214   1      12.269999999999996      65.440000000000012      61.349999999999994
   215   1      12.269999999999996      67.484999999999999      63.395000000000003
   216   1      14.314999999999998      65.440000000000012      63.395000000000003
   217   1      14.314999999999998      67.484999999999999      61.349999999999994
   218   1      12.269999999999996      65.440000000000012      65.440000000000012
   219   1      12.269999999999996      67.484999999999999      67.484999999999999
   220   1      14.314999999999998      65.440000000000012      67.484999999999999
   221   1      14.314999999999998      67.484999999999999      65.440000000000012
   222   1      12.269999999999996      65.440000000000012      69.530000000000001
   223   1      12.269999999999996      67.484999999999999      71.575000000000003
   224   1      14.314999999999998      65.440000000000012      71.575000000000003
   225   1      14.314999999999998      67.484999999999999      69.530000000000001
   226   1      12.269999999999996      65.440000000000012      73.620000000000005
   227   1      12.269999999999996      67.484999999999999      75.664999999999992
   228   1      14.314999999999998      65.440000000000012      75.664999999999992
   229   1      14.314999999999998      67.484999999999999      73.620000000000005
   230   1      12.269999999999996      65.440000000000012      77.709999999999994
   231   1      12.269999999999996      67.484999999999999       79.75500000000001
   232   1      14.314999999999998      65.440000000000012       79.75500000000001
   233   1      14.314999999999998      67.484999999999999      77.709999999999994
   234   1      12.269999999999996      65.440000000000012      81.799999999999997
   235   1      14.314999999999998      65.440000000000012      83.844999999999999
   236   1      14.314999999999998      67.484999999999999      81.799999999999997
   237   1      14.314999999999998      69.530000000000001      51.125000000000007
   238   1      12.269999999999996      69.530000000000001      53.169999999999995
   239   1      12.269999999999996      71.575000000000003      55.215000000000003
   240   1      14.314999999999998      69.530000000000001      55.215000000000003
   241   1      14.314999999999998      71.575000000000003      53.169999999999995
   242   1      12.269999999999996      69.530000000000001      57.259999999999991
   243   1      12.269999999999996      71.575000000000003                  59.305
   244   1      14.314999999999998      69.530000000000001                  59.305
   245   1      14.314999999999998      71.575000000000003      57.259999999999991
   246   1      12.269999999999996      69.530000000000001      61.349999999999994
   247   1      12.269999999999996      71.575000000000003      63.395000000000003
   248   1      14.314999999999998      69.530000000000001      63.395000000000003
   249   1      14.314999999999998      71.575000000000003      61.349999999999994
   250   1      12.269999999999996      69.530000000000001      65.440000000000012
   251   1      12.269999999999996      71.575000000000003      67.484999999999999
   252   1      14.314999999999998      69.530000000000001      67.484999999999999
   253   1      14.314999999999998      71.575000000000003      65.440000000000012
   254   1      12.269999999999996      69.530000000000001      69.530000000000001
   255   1      12.269999999999996      71.575000000000003      71.575000000000003
   256   1      14.314999999999998      69.530000000000001      71.575000000000003
   257   1      14.314999999999998      71.575000000000003      69.530000000000001
   258   1      12.269999999999996      69.530000000000001      73.620000000000005
   259   1      12.269999999999996      71.575000000000003      75.664999999999992
   260   1      14.314999999999998      69.530000000000001      75.664999999999992
   261   1      14.314999999999998      71.575000000000003      73.620000000000005
   262   1      12.269999999999996      69.530000000000001      77.709999999999994
   263   1      14.314999999999998      69.530000000000001       79.75500000000001
   264   1      14.314999999999998      71.575000000000003      77.709999999999994
   265   1      14.314999999999998      73.620000000000005      55.215000000000003
   266   1      12.269999999999996      73.620000000000005      57.259999999999991
   267   1      12.269999999999996      75.664999999999992                  59.305
   268   1      14.314999999999998      73.620000000000005                  59.305
   269   1      14.314999999999998      75.664999999999992      57.259999999999991
   270   1      12.269999999999996      73.620000000000005      61.349999999999994
   271   1      12.269999999999996      75.664999999999992      63.395000000000003
   272   1      14.314999999999998      73.620000000000005      63.395000000000003
   273   1      14.314999999999998      75.664999999999992      61.349999999999994
   274   1      12.269999999999996      73.620000000000005      65.440000000000012
   275   1      12.269999999999996      75.664999999999992      67.484999999999999
   276   1      14.314999999999998      73.620000000000005      67.484999999999999
   277   1      14.314999999999998      75.664999999999992      65.440000000000012
   278   1      12.269999999999996      73.620000000000005      69.530000000000001
   279   1      12.269999999999996      75.664999999999992      71.575000000000003
   280   1      14.314999999999998      73.620000000000005      71.575000000000003
   281   1      14.314999999999998      75.664999999999992      69.530000000000001
   282   1      12.269999999999996      73.620000000000005      73.620000000000005
   283   1      14.314999999999998      73.620000000000005      75.664999999999992
   284   1      14.314999999999998      75.664999999999992      73.620000000000005
   285   1      14.314999999999998      77.709999999999994                  59.305
   286   1      12.269999999999996      77.709999999999994      61.349999999999994
   287   1      12.269999999999996       79.75500000000001      63.395000000000003
   288   1      14.314999999999998      77.709999999999994      63.395000000000003
   289   1      14.314999999999998       79.75500000000001      61.349999999999994
   290   1      12.269999999999996      77.709999999999994      65.440000000000012
   291   1      12.269999999999996       79.75500000000001      67.484999999999999
   292   1      14.314999999999998      77.709999999999994      67.484999999999999
   293   1      14.314999999999998       79.75500000000001      65.440000000000012
   294   1      12.269999999999996      77.709999999999994      69.530000000000001
   295   1      14.314999999999998      77.709999999999994      71.575000000000003
   296   1      14.314999999999998       79.75500000000001      69.530000000000001
   297   1      14.314999999999998      81.799999999999997      63.395000000000003
   298   1      12.269999999999996      81.799999999999997      65.440000000000012
   299   1      14.314999999999998      81.799999999999997      67.484999999999999
   300   1      14.314999999999998      83.844999999999999      65.440000000000012
   301   1      18.404999999999994      42.944999999999993      65.440000000000012
   302   1      16.360000000000003      47.034999999999997      63.395000000000003
   303   1      18.404999999999994      44.989999999999995      63.395000000000003
   304   1      18.404999999999994      47.034999999999997      61.349999999999994
   305   1      16.360000000000003      44.989999999999995      65.440000000000012
   306   1      16.360000000000003      47.034999999999997      67.484999999999999
   307   1      18.404999999999994      44.989999999999995      67.484999999999999
   308   1      18.404999999999994      47.034999999999997      65.440000000000012
   309   1      18.404999999999994      47.034999999999997      69.530000000000001
   310   1      16.360000000000003      51.125000000000007                  59.305
   311   1      18.404999999999994      49.079999999999998                  59.305
   312   1      18.404999999999994      51.125000000000007      57.259999999999991
   313   1      16.360000000000003      49.079999999999998      61.349999999999994
   314   1      16.360000000000003      51.125000000000007      63.395000000000003
   315   1      18.404999999999994      49.079999999999998      63.395000000000003
   316   1      18.404999999999994      51.125000000000007      61.349999999999994
   317   1      16.360000000000003      49.079999999999998      65.440000000000012
   318   1      16.360000000000003      51.125000000000007      67.484999999999999
   319   1      18.404999999999994      49.079999999999998      67.484999999999999
   320   1      18.404999999999994      51.125000000000007      65.440000000000012
   321   1      16.360000000000003      49.079999999999998      69.530000000000001
   322   1      16.360000000000003      51.125000000000007      71.575000000000003
   323   1      18.404999999999994      49.079999999999998      71.575000000000003
   324   1      18.404999999999994      51.125000000000007      69.530000000000001
   325   1      18.404999999999994      51.125000000000007      73.620000000000005
   326   1      16.360000000000003      55.215000000000003      55.215000000000003
   327   1      18.404999999999994      53.169999999999995      55.215000000000003
   328   1      18.404999999999994      55.215000000000003      53.169999999999995
   329   1      16.360000000000003      53.169999999999995      57.259999999999991
   330   1      16.360000000000003      55.215000000000003                  59.305
   331   1      18.404999999999994      53.169999999999995                  59.305
   332   1      18.404999999999994      55.215000000000003      57.259999999999991
   333   1      16.360000000000003      53.169999999999995      61.349999999999994
   334   1      16.360000000000003      55.215000000000003      63.395000000000003
   335   1      18.404999999999994      53.169999999999995      63.395000000000003
   336   1      18.404999999999994      55.215000000000003      61.349999999999994
   337   1      16.360000000000003      53.169999999999995      65.440000000000012
   338   1      16.360000000000003      55.215000000000003      67.484999999999999
   339   1      18.404999999999994      53.169999999999995      67.484999999999999
   340   1      18.404999999999994      55.215000000000003      65.440000000000012
   341   1      16.360000000000003      53.169999999999995      69.530000000000001
   342   1      16.360000000000003      55.215000000000003      71.575000000000003
   343   1      18.404999999999994      53.169999999999995      71.575000000000003
   344   1      18.404999999999994      55.215000000000003      69.530000000000001
   345   1      16.360000000000003      53.169999999999995      73.620000000000005
   346   1      16.360000000000003      55.215000000000003      75.664999999999992
   347   1      18.404999999999994      53.169999999999995      75.664999999999992
   348   1      18.404999999999994      55.215000000000003      73.620000000000005
   349   1      18.404999999999994      55.215000000000003      77.709999999999994
   350   1      16.360000000000003                  59.305      51.125000000000007
   351   1      18.404999999999994      57.259999999999991      51.125000000000007
   352   1      18.404999999999994                  59.305      49.079999999999998
   353   1      16.360000000000003      57.259999999999991      53.169999999999995
   354   1      16.360000000000003                  59.305      55.215000000000003
   355   1      18.404999999999994      57.259999999999991      55.215000000000003
   356   1      18.404999999999994                  59.305      53.169999999999995
   357   1      16.360000000000003      57.259999999999991      57.259999999999991
   358   1      16.360000000000003                  59.305                  59.305