model_files/NiCoCrFeMn/NiCoCrFeMn_30000/NiCoCrFeMn_533/NiCoCrFeMn_533_fcc_30085_temp.data (written by ASE) 

30085 	 atoms 
5  atom types
0.0                     104  xlo xhi
0.0                     104  ylo yhi
0.0                     104  zlo zhi


Atoms 

     1   1                       0      50.330000000000013      52.127500000000012
     2   1                       0      52.127500000000012      50.330000000000013
     3   1                       0      52.127500000000012      53.925000000000011
     4   1                       0      53.925000000000011      52.127500000000012
     5   1      3.5949999999999989      46.734999999999999      52.127500000000012
     6   1      1.7974999999999994      50.330000000000013      50.330000000000013
     7   1      3.5949999999999989      48.532500000000006      50.330000000000013
     8   1      3.5949999999999989      50.330000000000013      48.532500000000006
     9   1      1.7974999999999994      48.532500000000006      52.127500000000012
    10   1      1.7974999999999994      50.330000000000013      53.925000000000011
    11   1      3.5949999999999989      48.532500000000006      53.925000000000011
    12   1      3.5949999999999989      50.330000000000013      52.127500000000012
    13   1      3.5949999999999989      50.330000000000013      55.722500000000011
    14   1      3.5949999999999989      52.127500000000012      46.734999999999999
    15   1      1.7974999999999994      52.127500000000012      48.532500000000006
    16   1      1.7974999999999994      53.925000000000011      50.330000000000013
    17   1      3.5949999999999989      52.127500000000012      50.330000000000013
    18   1      3.5949999999999989      53.925000000000011      48.532500000000006
    19   1      1.7974999999999994      52.127500000000012      52.127500000000012
    20   1      1.7974999999999994      53.925000000000011      53.925000000000011
    21   1      3.5949999999999989      52.127500000000012      53.925000000000011
    22   1      3.5949999999999989      53.925000000000011      52.127500000000012
    23   1      1.7974999999999994      52.127500000000012      55.722500000000011
    24   1      3.5949999999999989      52.127500000000012      57.520000000000003
    25   1      3.5949999999999989      53.925000000000011      55.722500000000011
    26   1      3.5949999999999989      55.722500000000011      50.330000000000013
    27   1      1.7974999999999994      55.722500000000011      52.127500000000012
    28   1      3.5949999999999989      55.722500000000011      53.925000000000011
    29   1      3.5949999999999989      57.520000000000003      52.127500000000012
    30   1      7.1900000000000048      39.545000000000009      52.127500000000012
    31   1      5.3924999999999983      43.140000000000001      50.330000000000013
    32   1      7.1900000000000048      41.342500000000001      50.330000000000013
    33   1      7.1900000000000048      43.140000000000001      48.532500000000006
    34   1      5.3924999999999983      41.342500000000001      52.127500000000012
    35   1      5.3924999999999983      43.140000000000001      53.925000000000011
    36   1      7.1900000000000048      41.342500000000001      53.925000000000011
    37   1      7.1900000000000048      43.140000000000001      52.127500000000012
    38   1      7.1900000000000048      43.140000000000001      55.722500000000011
    39   1      5.3924999999999983      46.734999999999999      46.734999999999999
    40   1      7.1900000000000048      44.937500000000007      46.734999999999999
    41   1      7.1900000000000048      46.734999999999999      44.937500000000007
    42   1      5.3924999999999983      44.937500000000007      48.532500000000006
    43   1      5.3924999999999983      46.734999999999999      50.330000000000013
    44   1      7.1900000000000048      44.937500000000007      50.330000000000013
    45   1      7.1900000000000048      46.734999999999999      48.532500000000006
    46   1      5.3924999999999983      44.937500000000007      52.127500000000012
    47   1      5.3924999999999983      46.734999999999999      53.925000000000011
    48   1      7.1900000000000048      44.937500000000007      53.925000000000011
    49   1      7.1900000000000048      46.734999999999999      52.127500000000012
    50   1      5.3924999999999983      44.937500000000007      55.722500000000011
    51   1      5.3924999999999983      46.734999999999999      57.520000000000003
    52   1      7.1900000000000048      44.937500000000007      57.520000000000003
    53   1      7.1900000000000048      46.734999999999999      55.722500000000011
    54   1      7.1900000000000048      46.734999999999999      59.317500000000003
    55   1      5.3924999999999983      50.330000000000013      43.140000000000001
    56   1      7.1900000000000048      48.532500000000006      43.140000000000001
    57   1      7.1900000000000048      50.330000000000013      41.342500000000001
    58   1      5.3924999999999983      48.532500000000006      44.937500000000007
    59   1      5.3924999999999983      50.330000000000013      46.734999999999999
    60   1      7.1900000000000048      48.532500000000006      46.734999999999999
    61   1      7.1900000000000048      50.330000000000013      44.937500000000007
    62   1      5.3924999999999983      48.532500000000006      48.532500000000006
    63   1      5.3924999999999983      50.330000000000013      50.330000000000013
    64   1      7.1900000000000048      48.532500000000006      50.330000000000013
    65   1      7.1900000000000048      50.330000000000013      48.532500000000006
    66   1      5.3924999999999983      48.532500000000006      52.127500000000012
    67   1      5.3924999999999983      50.330000000000013      53.925000000000011
    68   1      7.1900000000000048      48.532500000000006      53.925000000000011
    69   1      7.1900000000000048      50.330000000000013      52.127500000000012
    70   1      5.3924999999999983      48.532500000000006      55.722500000000011
    71   1      5.3924999999999983      50.330000000000013      57.520000000000003
    72   1      7.1900000000000048      48.532500000000006      57.520000000000003
    73   1      7.1900000000000048      50.330000000000013      55.722500000000011
    74   1      5.3924999999999983      48.532500000000006      59.317500000000003
    75   1      5.3924999999999983      50.330000000000013      61.115000000000002
    76   1      7.1900000000000048      48.532500000000006      61.115000000000002
    77   1      7.1900000000000048      50.330000000000013      59.317500000000003
    78   1      7.1900000000000048      50.330000000000013      62.912500000000009
    79   1      7.1900000000000048      52.127500000000012      39.545000000000009
    80   1      5.3924999999999983      52.127500000000012      41.342500000000001
    81   1      5.3924999999999983      53.925000000000011      43.140000000000001
    82   1      7.1900000000000048      52.127500000000012      43.140000000000001
    83   1      7.1900000000000048      53.925000000000011      41.342500000000001
    84   1      5.3924999999999983      52.127500000000012      44.937500000000007
    85   1      5.3924999999999983      53.925000000000011      46.734999999999999
    86   1      7.1900000000000048      52.127500000000012      46.734999999999999
    87   1      7.1900000000000048      53.925000000000011      44.937500000000007
    88   1      5.3924999999999983      52.127500000000012      48.532500000000006
    89   1      5.3924999999999983      53.925000000000011      50.330000000000013
    90   1      7.1900000000000048      52.127500000000012      50.330000000000013
    91   1      7.1900000000000048      53.925000000000011      48.532500000000006
    92   1      5.3924999999999983      52.127500000000012      52.127500000000012
    93   1      5.3924999999999983      53.925000000000011      53.925000000000011
    94   1      7.1900000000000048      52.127500000000012      53.925000000000011
    95   1      7.1900000000000048      53.925000000000011      52.127500000000012
    96   1      5.3924999999999983      52.127500000000012      55.722500000000011
    97   1      5.3924999999999983      53.925000000000011      57.520000000000003
    98   1      7.1900000000000048      52.127500000000012      57.520000000000003
    99   1      7.1900000000000048      53.925000000000011      55.722500000000011
   100   1      5.3924999999999983      52.127500000000012      59.317500000000003
   101   1      5.3924999999999983      53.925000000000011      61.115000000000002
   102   1      7.1900000000000048      52.127500000000012      61.115000000000002
   103   1      7.1900000000000048      53.925000000000011      59.317500000000003
   104   1      5.3924999999999983      52.127500000000012      62.912500000000009
   105   1      7.1900000000000048      52.127500000000012      64.710000000000008
   106   1      7.1900000000000048      53.925000000000011      62.912500000000009
   107   1      7.1900000000000048      55.722500000000011      43.140000000000001
   108   1      5.3924999999999983      55.722500000000011      44.937500000000007
   109   1      5.3924999999999983      57.520000000000003      46.734999999999999
   110   1      7.1900000000000048      55.722500000000011      46.734999999999999
   111   1      7.1900000000000048      57.520000000000003      44.937500000000007
   112   1      5.3924999999999983      55.722500000000011      48.532500000000006
   113   1      5.3924999999999983      57.520000000000003      50.330000000000013
   114   1      7.1900000000000048      55.722500000000011      50.330000000000013
   115   1      7.1900000000000048      57.520000000000003      48.532500000000006
   116   1      5.3924999999999983      55.722500000000011      52.127500000000012
   117   1      5.3924999999999983      57.520000000000003      53.925000000000011
   118   1      7.1900000000000048      55.722500000000011      53.925000000000011
   119   1      7.1900000000000048      57.520000000000003      52.127500000000012
   120   1      5.3924999999999983      55.722500000000011      55.722500000000011
   121   1      5.3924999999999983      57.520000000000003      57.520000000000003
   122   1      7.1900000000000048      55.722500000000011      57.520000000000003
   123   1      7.1900000000000048      57.520000000000003      55.722500000000011
   124   1      5.3924999999999983      55.722500000000011      59.317500000000003
   125   1      7.1900000000000048      55.722500000000011      61.115000000000002
   126   1      7.1900000000000048      57.520000000000003      59.317500000000003
   127   1      7.1900000000000048      59.317500000000003      46.734999999999999
   128   1      5.3924999999999983      59.317500000000003      48.532500000000006
   129   1      5.3924999999999983      61.115000000000002      50.330000000000013
   130   1      7.1900000000000048      59.317500000000003      50.330000000000013
   131   1      7.1900000000000048      61.115000000000002      48.532500000000006
   132   1      5.3924999999999983      59.317500000000003      52.127500000000012
   133   1      5.3924999999999983      61.115000000000002      53.925000000000011
   134   1      7.1900000000000048      59.317500000000003      53.925000000000011
   135   1      7.1900000000000048      61.115000000000002      52.127500000000012
   136   1      5.3924999999999983      59.317500000000003      55.722500000000011
   137   1      7.1900000000000048      59.317500000000003      57.520000000000003
   138   1      7.1900000000000048      61.115000000000002      55.722500000000011
   139   1      7.1900000000000048      62.912500000000009      50.330000000000013
   140   1      5.3924999999999983      62.912500000000009      52.127500000000012
   141   1      7.1900000000000048      62.912500000000009      53.925000000000011
   142   1      7.1900000000000048      64.710000000000008      52.127500000000012
   143   1      10.785000000000005      32.355000000000004      52.127500000000012
   144   1      10.785000000000005      34.152500000000011      50.330000000000013
   145   1      10.785000000000005      35.950000000000003      48.532500000000006
   146   1      10.785000000000005      34.152500000000011      53.925000000000011
   147   1      10.785000000000005      35.950000000000003      52.127500000000012
   148   1      10.785000000000005      35.950000000000003      55.722500000000011
   149   1      10.785000000000005      37.747500000000002      46.734999999999999
   150   1      10.785000000000005      39.545000000000009      44.937500000000007
   151   1      8.9875000000000043      39.545000000000009      50.330000000000013
   152   1      10.785000000000005      37.747500000000002      50.330000000000013
   153   1      10.785000000000005      39.545000000000009      48.532500000000006
   154   1      8.9875000000000043      37.747500000000002      52.127500000000012
   155   1      8.9875000000000043      39.545000000000009      53.925000000000011
   156   1      10.785000000000005      37.747500000000002      53.925000000000011
   157   1      10.785000000000005      39.545000000000009      52.127500000000012
   158   1      10.785000000000005      37.747500000000002      57.520000000000003
   159   1      10.785000000000005      39.545000000000009      55.722500000000011
   160   1      10.785000000000005      39.545000000000009      59.317500000000003
   161   1      10.785000000000005      41.342500000000001      43.140000000000001
   162   1      10.785000000000005      43.140000000000001      41.342500000000001
   163   1      8.9875000000000043      43.140000000000001      46.734999999999999
   164   1      10.785000000000005      41.342500000000001      46.734999999999999
   165   1      10.785000000000005      43.140000000000001      44.937500000000007
   166   1      8.9875000000000043      41.342500000000001      48.532500000000006
   167   1      8.9875000000000043      43.140000000000001      50.330000000000013
   168   1      10.785000000000005      41.342500000000001      50.330000000000013
   169   1      10.785000000000005      43.140000000000001      48.532500000000006
   170   1      8.9875000000000043      41.342500000000001      52.127500000000012
   171   1      8.9875000000000043      43.140000000000001      53.925000000000011
   172   1      10.785000000000005      41.342500000000001      53.925000000000011
   173   1      10.785000000000005      43.140000000000001      52.127500000000012
   174   1      8.9875000000000043      41.342500000000001      55.722500000000011
   175   1      8.9875000000000043      43.140000000000001      57.520000000000003
   176   1      10.785000000000005      41.342500000000001      57.520000000000003
   177   1      10.785000000000005      43.140000000000001      55.722500000000011
   178   1      10.785000000000005      41.342500000000001      61.115000000000002
   179   1      10.785000000000005      43.140000000000001      59.317500000000003
   180   1      10.785000000000005      43.140000000000001      62.912500000000009
   181   1      10.785000000000005      44.937500000000007      39.545000000000009
   182   1      10.785000000000005      46.734999999999999      37.747500000000002
   183   1      8.9875000000000043      46.734999999999999      43.140000000000001
   184   1      10.785000000000005      44.937500000000007      43.140000000000001
   185   1      10.785000000000005      46.734999999999999      41.342500000000001
   186   1      8.9875000000000043      44.937500000000007      44.937500000000007
   187   1      8.9875000000000043      46.734999999999999      46.734999999999999
   188   1      10.785000000000005      44.937500000000007      46.734999999999999
   189   1      10.785000000000005      46.734999999999999      44.937500000000007
   190   1      8.9875000000000043      44.937500000000007      48.532500000000006
   191   1      8.9875000000000043      46.734999999999999      50.330000000000013
   192   1      10.785000000000005      44.937500000000007      50.330000000000013
   193   1      10.785000000000005      46.734999999999999      48.532500000000006
   194   1      8.9875000000000043      44.937500000000007      52.127500000000012
   195   1      8.9875000000000043      46.734999999999999      53.925000000000011
   196   1      10.785000000000005      44.937500000000007      53.925000000000011
   197   1      10.785000000000005      46.734999999999999      52.127500000000012
   198   1      8.9875000000000043      44.937500000000007      55.722500000000011
   199   1      8.9875000000000043      46.734999999999999      57.520000000000003
   200   1      10.785000000000005      44.937500000000007      57.520000000000003
   201   1      10.785000000000005      46.734999999999999      55.722500000000011
   202   1      8.9875000000000043      44.937500000000007      59.317500000000003
   203   1      8.9875000000000043      46.734999999999999      61.115000000000002
   204   1      10.785000000000005      44.937500000000007      61.115000000000002
   205   1      10.785000000000005      46.734999999999999      59.317500000000003
   206   1      10.785000000000005      44.937500000000007      64.710000000000008
   207   1      10.785000000000005      46.734999999999999      62.912500000000009
   208   1      10.785000000000005      46.734999999999999      66.507500000000007
   209   1      10.785000000000005      48.532500000000006      35.950000000000003
   210   1      10.785000000000005      50.330000000000013      34.152500000000011
   211   1      8.9875000000000043      50.330000000000013      39.545000000000009
   212   1      10.785000000000005      48.532500000000006      39.545000000000009
   213   1      10.785000000000005      50.330000000000013      37.747500000000002
   214   1      8.9875000000000043      48.532500000000006      41.342500000000001
   215   1      8.9875000000000043      50.330000000000013      43.140000000000001
   216   1      10.785000000000005      48.532500000000006      43.140000000000001
   217   1      10.785000000000005      50.330000000000013      41.342500000000001
   218   1      8.9875000000000043      48.532500000000006      44.937500000000007
   219   1      8.9875000000000043      50.330000000000013      46.734999999999999
   220   1      10.785000000000005      48.532500000000006      46.734999999999999
   221   1      10.785000000000005      50.330000000000013      44.937500000000007
   222   1      8.9875000000000043      48.532500000000006      48.532500000000006
   223   1      8.9875000000000043      50.330000000000013      50.330000000000013
   224   1      10.785000000000005      48.532500000000006      50.330000000000013
   225   1      10.785000000000005      50.330000000000013      48.532500000000006
   226   1      8.9875000000000043      48.532500000000006      52.127500000000012
   227   1      8.9875000000000043      50.330000000000013      53.925000000000011
   228   1      10.785000000000005      48.532500000000006      53.925000000000011
   229   1      10.785000000000005      50.330000000000013      52.127500000000012
   230   1      8.9875000000000043      48.532500000000006      55.722500000000011
   231   1      8.9875000000000043      50.330000000000013      57.520000000000003
   232   1      10.785000000000005      48.532500000000006      57.520000000000003
   233   1      10.785000000000005      50.330000000000013      55.722500000000011
   234   1      8.9875000000000043      48.532500000000006      59.317500000000003
   235   1      8.9875000000000043      50.330000000000013      61.115000000000002
   236   1      10.785000000000005      48.532500000000006      61.115000000000002
   237   1      10.785000000000005      50.330000000000013      59.317500000000003
   238   1      8.9875000000000043      48.532500000000006      62.912500000000009
   239   1      8.9875000000000043      50.330000000000013      64.710000000000008
   240   1      10.785000000000005      48.532500000000006      64.710000000000008
   241   1      10.785000000000005      50.330000000000013      62.912500000000009
   242   1      10.785000000000005      48.532500000000006      68.305000000000021
   243   1      10.785000000000005      50.330000000000013      66.507500000000007
   244   1      10.785000000000005      50.330000000000013      70.102500000000006
   245   1      10.785000000000005      52.127500000000012      32.355000000000004
   246   1      10.785000000000005      52.127500000000012      35.950000000000003
   247   1      10.785000000000005      53.925000000000011      34.152500000000011
   248   1      8.9875000000000043      52.127500000000012      37.747500000000002
   249   1      8.9875000000000043      53.925000000000011      39.545000000000009
   250   1      10.785000000000005      52.127500000000012      39.545000000000009
   251   1      10.785000000000005      53.925000000000011      37.747500000000002
   252   1      8.9875000000000043      52.127500000000012      41.342500000000001
   253   1      8.9875000000000043      53.925000000000011      43.140000000000001
   254   1      10.785000000000005      52.127500000000012      43.140000000000001
   255   1      10.785000000000005      53.925000000000011      41.342500000000001
   256   1      8.9875000000000043      52.127500000000012      44.937500000000007
   257   1      8.9875000000000043      53.925000000000011      46.734999999999999
   258   1      10.785000000000005      52.127500000000012      46.734999999999999
   259   1      10.785000000000005      53.925000000000011      44.937500000000007
   260   1      8.9875000000000043      52.127500000000012      48.532500000000006
   261   1      8.9875000000000043      53.925000000000011      50.330000000000013
   262   1      10.785000000000005      52.127500000000012      50.330000000000013
   263   1      10.785000000000005      53.925000000000011      48.532500000000006
   264   1      8.9875000000000043      52.127500000000012      52.127500000000012
   265   1      8.9875000000000043      53.925000000000011      53.925000000000011
   266   1      10.785000000000005      52.127500000000012      53.925000000000011
   267   1      10.785000000000005      53.925000000000011      52.127500000000012
   268   1      8.9875000000000043      52.127500000000012      55.722500000000011
   269   1      8.9875000000000043      53.925000000000011      57.520000000000003
   270   1      10.785000000000005      52.127500000000012      57.520000000000003
   271   1      10.785000000000005      53.925000000000011      55.722500000000011
   272   1      8.9875000000000043      52.127500000000012      59.317500000000003
   273   1      8.9875000000000043      53.925000000000011      61.115000000000002
   274   1      10.785000000000005      52.127500000000012      61.115000000000002
   275   1      10.785000000000005      53.925000000000011      59.317500000000003
   276   1      8.9875000000000043      52.127500000000012      62.912500000000009
   277   1      8.9875000000000043      53.925000000000011      64.710000000000008
   278   1      10.785000000000005      52.127500000000012      64.710000000000008
   279   1      10.785000000000005      53.925000000000011      62.912500000000009
   280   1      8.9875000000000043      52.127500000000012      66.507500000000007
   281   1      10.785000000000005      52.127500000000012      68.305000000000021
   282   1      10.785000000000005      53.925000000000011      66.507500000000007
   283   1      10.785000000000005      52.127500000000012      71.900000000000006
   284   1      10.785000000000005      53.925000000000011      70.102500000000006
   285   1      10.785000000000005      55.722500000000011      35.950000000000003
   286   1      10.785000000000005      55.722500000000011      39.545000000000009
   287   1      10.785000000000005      57.520000000000003      37.747500000000002
   288   1      8.9875000000000043      55.722500000000011      41.342500000000001
   289   1      8.9875000000000043      57.520000000000003      43.140000000000001
   290   1      10.785000000000005      55.722500000000011      43.140000000000001
   291   1      10.785000000000005      57.520000000000003      41.342500000000001
   292   1      8.9875000000000043      55.722500000000011      44.937500000000007
   293   1      8.9875000000000043      57.520000000000003      46.734999999999999
   294   1      10.785000000000005      55.722500000000011      46.734999999999999
   295   1      10.785000000000005      57.520000000000003      44.937500000000007
   296   1      8.9875000000000043      55.722500000000011      48.532500000000006
   297   1      8.9875000000000043      57.520000000000003      50.330000000000013
   298   1      10.785000000000005      55.722500000000011      50.330000000000013
   299   1      10.785000000000005      57.520000000000003      48.532500000000006
   300   1      8.9875000000000043      55.722500000000011      52.127500000000012
   301   1      8.9875000000000043      57.520000000000003      53.925000000000011
   302   1      10.785000000000005      55.722500000000011      53.925000000000011
   303   1      10.785000000000005      57.520000000000003      52.127500000000012
   304   1      8.9875000000000043      55.722500000000011      55.722500000000011
   305   1      8.9875000000000043      57.520000000000003      57.520000000000003
   306   1      10.785000000000005      55.722500000000011      57.520000000000003
   307   1      10.785000000000005      57.520000000000003      55.722500000000011
   308   1      8.9875000000000043      55.722500000000011      59.317500000000003
   309   1      8.9875000000000043      57.520000000000003      61.115000000000002
   310   1      10.785000000000005      55.722500000000011      61.115000000000002
   311   1      10.785000000000005      57.520000000000003      59.317500000000003
   312   1      8.9875000000000043      55.722500000000011      62.912500000000009
   313   1      10.785000000000005      55.722500000000011      64.710000000000008
   314   1      10.785000000000005      57.520000000000003      62.912500000000009
   315   1      10.785000000000005      55.722500000000011      68.305000000000021
   316   1      10.785000000000005      57.520000000000003      66.507500000000007
   317   1      10.785000000000005      59.317500000000003      39.545000000000009
   318   1      10.785000000000005      59.317500000000003      43.140000000000001
   319   1      10.785000000000005      61.115000000000002      41.342500000000001
   320   1      8.9875000000000043      59.317500000000003      44.937500000000007
   321   1      8.9875000000000043      61.115000000000002      46.734999999999999
   322   1      10.785000000000005      59.317500000000003      46.734999999999999
   323   1      10.785000000000005      61.115000000000002      44.937500000000007
   324   1      8.9875000000000043      59.317500000000003      48.532500000000006
   325   1      8.9875000000000043      61.115000000000002      50.330000000000013
   326   1      10.785000000000005      59.317500000000003      50.330000000000013
   327   1      10.785000000000005      61.115000000000002      48.532500000000006
   328   1      8.9875000000000043      59.317500000000003      52.127500000000012
   329   1      8.9875000000000043      61.115000000000002      53.925000000000011
   330   1      10.785000000000005      59.317500000000003      53.925000000000011
   331   1      10.785000000000005      61.115000000000002      52.127500000000012
   332   1      8.9875000000000043      59.317500000000003      55.722500000000011
   333   1      8.9875000000000043      61.115000000000002      57.520000000000003
   334   1      10.785000000000005      59.317500000000003      57.520000000000003
   335   1      10.785000000000005      61.115000000000002      55.722500000000011
   336   1      8.9875000000000043      59.317500000000003      59.317500000000003
   337   1      10.785000000000005      59.317500000000003      61.115000000000002
   338   1      10.785000000000005      61.115000000000002      59.317500000000003
   339   1      10.785000000000005      59.317500000000003      64.710000000000008
   340   1      10.785000000000005      61.115000000000002      62.912500000000009
   341   1      10.785000000000005      62.912500000000009      43.140000000000001
   342   1      10.785000000000005      62.912500000000009      46.734999999999999
   343   1      10.785000000000005      64.710000000000008      44.937500000000007
   344   1      8.9875000000000043      62.912500000000009      48.532500000000006
   345   1      8.9875000000000043      64.710000000000008      50.330000000000013
   346   1      10.785000000000005      62.912500000000009      50.330000000000013
   347   1      10.785000000000005      64.710000000000008      48.532500000000006
   348   1      8.9875000000000043      62.912500000000009      52.127500000000012
   349   1      8.9875000000000043      64.710000000000008      53.925000000000011
   350   1      10.785000000000005      62.912500000000009      53.925000000000011
   351   1      10.785000000000005      64.710000000000008      52.127500000000012
   352   1      8.9875000000000043      62.912500000000009      55.722500000000011
   353   1      10.785000000000005      62.912500000000009      57.520000000000003
   354   1      10.785000000000005      64.710000000000008      55.722500000000011
   355   1      10.785000000000005      62.912500000000009      61.115000000000002
   356   1      10.785000000000005      64.710000000000008      59.317500000000003
   357   1      10.785000000000005      66.507500000000007      46.734999999999999
   358   1      10.785000000000005      66.507500000000007      50.330000000000013