model_files/NiFeCrCoAl/NiFeCrCoAl_30000/NiFeCrCoAl_441/NiFeCrCoAl_441_fcc_30129_temp.data (written by ASE) 

30129 	 atoms 
5  atom types
0.0                     117  xlo xhi
0.0                     117  ylo yhi
0.0                     117  zlo zhi


Atoms 

     1   1      1.8049999999999999      55.955000000000005      57.760000000000005
     2   1      1.8049999999999999      57.760000000000005      55.955000000000005
     3   1                       0      57.760000000000005      57.760000000000005
     4   1      1.8049999999999999      57.760000000000005      59.565000000000005
     5   1      1.8049999999999999      59.565000000000005      57.760000000000005
     6   1                   5.415      52.344999999999999      57.760000000000005
     7   1      3.6099999999999999      55.955000000000005      55.955000000000005
     8   1                   5.415      54.150000000000006      55.955000000000005
     9   1                   5.415      55.955000000000005      54.150000000000006
    10   1      3.6099999999999999      54.150000000000006      57.760000000000005
    11   1      3.6099999999999999      55.955000000000005      59.565000000000005
    12   1                   5.415      54.150000000000006      59.565000000000005
    13   1                   5.415      55.955000000000005      57.760000000000005
    14   1                   5.415      55.955000000000005      61.370000000000005
    15   1                   5.415      57.760000000000005      52.344999999999999
    16   1      3.6099999999999999      57.760000000000005      54.150000000000006
    17   1      3.6099999999999999      59.565000000000005      55.955000000000005
    18   1                   5.415      57.760000000000005      55.955000000000005
    19   1                   5.415      59.565000000000005      54.150000000000006
    20   1      3.6099999999999999      57.760000000000005      57.760000000000005
    21   1      3.6099999999999999      59.565000000000005      59.565000000000005
    22   1                   5.415      57.760000000000005      59.565000000000005
    23   1                   5.415      59.565000000000005      57.760000000000005
    24   1      3.6099999999999999      57.760000000000005      61.370000000000005
    25   1                   5.415      57.760000000000005      63.175000000000026
    26   1                   5.415      59.565000000000005      61.370000000000005
    27   1                   5.415      61.370000000000005      55.955000000000005
    28   1      3.6099999999999999      61.370000000000005      57.760000000000005
    29   1                   5.415      61.370000000000005      59.565000000000005
    30   1                   5.415      63.175000000000026      57.760000000000005
    31   1      9.0249999999999986      48.735000000000007      57.760000000000005
    32   1      7.2199999999999998      52.344999999999999      52.344999999999999
    33   1      9.0249999999999986      50.540000000000006      52.344999999999999
    34   1      9.0249999999999986      52.344999999999999      50.540000000000006
    35   1      7.2199999999999998      52.344999999999999      55.955000000000005
    36   1      9.0249999999999986      50.540000000000006      55.955000000000005
    37   1      9.0249999999999986      52.344999999999999      54.150000000000006
    38   1      7.2199999999999998      50.540000000000006      57.760000000000005
    39   1      7.2199999999999998      52.344999999999999      59.565000000000005
    40   1      9.0249999999999986      50.540000000000006      59.565000000000005
    41   1      9.0249999999999986      52.344999999999999      57.760000000000005
    42   1      7.2199999999999998      52.344999999999999      63.175000000000026
    43   1      9.0249999999999986      50.540000000000006      63.175000000000026
    44   1      9.0249999999999986      52.344999999999999      61.370000000000005
    45   1      9.0249999999999986      52.344999999999999      64.980000000000004
    46   1      7.2199999999999998      55.955000000000005      52.344999999999999
    47   1      9.0249999999999986      54.150000000000006      52.344999999999999
    48   1      9.0249999999999986      55.955000000000005      50.540000000000006
    49   1      7.2199999999999998      54.150000000000006      54.150000000000006
    50   1      7.2199999999999998      55.955000000000005      55.955000000000005
    51   1      9.0249999999999986      54.150000000000006      55.955000000000005
    52   1      9.0249999999999986      55.955000000000005      54.150000000000006
    53   1      7.2199999999999998      54.150000000000006      57.760000000000005
    54   1      7.2199999999999998      55.955000000000005      59.565000000000005
    55   1      9.0249999999999986      54.150000000000006      59.565000000000005
    56   1      9.0249999999999986      55.955000000000005      57.760000000000005
    57   1      7.2199999999999998      54.150000000000006      61.370000000000005
    58   1      7.2199999999999998      55.955000000000005      63.175000000000026
    59   1      9.0249999999999986      54.150000000000006      63.175000000000026
    60   1      9.0249999999999986      55.955000000000005      61.370000000000005
    61   1      9.0249999999999986      55.955000000000005      64.980000000000004
    62   1      9.0249999999999986      57.760000000000005      48.735000000000007
    63   1      7.2199999999999998      57.760000000000005      50.540000000000006
    64   1      7.2199999999999998      59.565000000000005      52.344999999999999
    65   1      9.0249999999999986      57.760000000000005      52.344999999999999
    66   1      9.0249999999999986      59.565000000000005      50.540000000000006
    67   1      7.2199999999999998      57.760000000000005      54.150000000000006
    68   1      7.2199999999999998      59.565000000000005      55.955000000000005
    69   1      9.0249999999999986      57.760000000000005      55.955000000000005
    70   1      9.0249999999999986      59.565000000000005      54.150000000000006
    71   1      7.2199999999999998      57.760000000000005      57.760000000000005
    72   1      7.2199999999999998      59.565000000000005      59.565000000000005
    73   1      9.0249999999999986      57.760000000000005      59.565000000000005
    74   1      9.0249999999999986      59.565000000000005      57.760000000000005
    75   1      7.2199999999999998      57.760000000000005      61.370000000000005
    76   1      7.2199999999999998      59.565000000000005      63.175000000000026
    77   1      9.0249999999999986      57.760000000000005      63.175000000000026
    78   1      9.0249999999999986      59.565000000000005      61.370000000000005
    79   1      7.2199999999999998      57.760000000000005      64.980000000000004
    80   1      9.0249999999999986      57.760000000000005      66.785000000000011
    81   1      9.0249999999999986      59.565000000000005      64.980000000000004
    82   1      7.2199999999999998      63.175000000000026      52.344999999999999
    83   1      9.0249999999999986      61.370000000000005      52.344999999999999
    84   1      9.0249999999999986      63.175000000000026      50.540000000000006
    85   1      7.2199999999999998      61.370000000000005      54.150000000000006
    86   1      7.2199999999999998      63.175000000000026      55.955000000000005
    87   1      9.0249999999999986      61.370000000000005      55.955000000000005
    88   1      9.0249999999999986      63.175000000000026      54.150000000000006
    89   1      7.2199999999999998      61.370000000000005      57.760000000000005
    90   1      7.2199999999999998      63.175000000000026      59.565000000000005
    91   1      9.0249999999999986      61.370000000000005      59.565000000000005
    92   1      9.0249999999999986      63.175000000000026      57.760000000000005
    93   1      7.2199999999999998      61.370000000000005      61.370000000000005
    94   1      7.2199999999999998      63.175000000000026      63.175000000000026
    95   1      9.0249999999999986      61.370000000000005      63.175000000000026
    96   1      9.0249999999999986      63.175000000000026      61.370000000000005
    97   1      9.0249999999999986      63.175000000000026      64.980000000000004
    98   1      9.0249999999999986      64.980000000000004      52.344999999999999
    99   1      9.0249999999999986      64.980000000000004      55.955000000000005
   100   1      7.2199999999999998      64.980000000000004      57.760000000000005
   101   1      9.0249999999999986      64.980000000000004      59.565000000000005
   102   1      9.0249999999999986      66.785000000000011      57.760000000000005
   103   1      9.0249999999999986      64.980000000000004      63.175000000000026
   104   1                  12.635                  45.125      57.760000000000005
   105   1                   10.83      48.735000000000007      48.735000000000007
   106   1                  12.635      46.930000000000007      48.735000000000007
   107   1                  12.635      48.735000000000007      46.930000000000007
   108   1                   10.83      48.735000000000007      52.344999999999999
   109   1                  12.635      46.930000000000007      52.344999999999999
   110   1                  12.635      48.735000000000007      50.540000000000006
   111   1                   10.83      48.735000000000007      55.955000000000005
   112   1                  12.635      46.930000000000007      55.955000000000005
   113   1                  12.635      48.735000000000007      54.150000000000006
   114   1                   10.83      46.930000000000007      57.760000000000005
   115   1                   10.83      48.735000000000007      59.565000000000005
   116   1                  12.635      46.930000000000007      59.565000000000005
   117   1                  12.635      48.735000000000007      57.760000000000005
   118   1                   10.83      48.735000000000007      63.175000000000026
   119   1                  12.635      46.930000000000007      63.175000000000026
   120   1                  12.635      48.735000000000007      61.370000000000005
   121   1                   10.83      48.735000000000007      66.785000000000011
   122   1                  12.635      46.930000000000007      66.785000000000011
   123   1                  12.635      48.735000000000007      64.980000000000004
   124   1                  12.635      48.735000000000007      68.590000000000018
   125   1                   10.83      52.344999999999999      48.735000000000007
   126   1                  12.635      50.540000000000006      48.735000000000007
   127   1                  12.635      52.344999999999999      46.930000000000007
   128   1                   10.83      50.540000000000006      50.540000000000006
   129   1                   10.83      52.344999999999999      52.344999999999999
   130   1                  12.635      50.540000000000006      52.344999999999999
   131   1                  12.635      52.344999999999999      50.540000000000006
   132   1                   10.83      50.540000000000006      54.150000000000006
   133   1                   10.83      52.344999999999999      55.955000000000005
   134   1                  12.635      50.540000000000006      55.955000000000005
   135   1                  12.635      52.344999999999999      54.150000000000006
   136   1                   10.83      50.540000000000006      57.760000000000005
   137   1                   10.83      52.344999999999999      59.565000000000005
   138   1                  12.635      50.540000000000006      59.565000000000005
   139   1                  12.635      52.344999999999999      57.760000000000005
   140   1                   10.83      50.540000000000006      61.370000000000005
   141   1                   10.83      52.344999999999999      63.175000000000026
   142   1                  12.635      50.540000000000006      63.175000000000026
   143   1                  12.635      52.344999999999999      61.370000000000005
   144   1                   10.83      50.540000000000006      64.980000000000004
   145   1                   10.83      52.344999999999999      66.785000000000011
   146   1                  12.635      50.540000000000006      66.785000000000011
   147   1                  12.635      52.344999999999999      64.980000000000004
   148   1                  12.635      52.344999999999999      68.590000000000018
   149   1                   10.83      55.955000000000005      48.735000000000007
   150   1                  12.635      54.150000000000006      48.735000000000007
   151   1                  12.635      55.955000000000005      46.930000000000007
   152   1                   10.83      54.150000000000006      50.540000000000006
   153   1                   10.83      55.955000000000005      52.344999999999999
   154   1                  12.635      54.150000000000006      52.344999999999999
   155   1                  12.635      55.955000000000005      50.540000000000006
   156   1                   10.83      54.150000000000006      54.150000000000006
   157   1                   10.83      55.955000000000005      55.955000000000005
   158   1                  12.635      54.150000000000006      55.955000000000005
   159   1                  12.635      55.955000000000005      54.150000000000006
   160   1                   10.83      54.150000000000006      57.760000000000005
   161   1                   10.83      55.955000000000005      59.565000000000005
   162   1                  12.635      54.150000000000006      59.565000000000005
   163   1                  12.635      55.955000000000005      57.760000000000005
   164   1                   10.83      54.150000000000006      61.370000000000005
   165   1                   10.83      55.955000000000005      63.175000000000026
   166   1                  12.635      54.150000000000006      63.175000000000026
   167   1                  12.635      55.955000000000005      61.370000000000005
   168   1                   10.83      54.150000000000006      64.980000000000004
   169   1                   10.83      55.955000000000005      66.785000000000011
   170   1                  12.635      54.150000000000006      66.785000000000011
   171   1                  12.635      55.955000000000005      64.980000000000004
   172   1                  12.635      55.955000000000005      68.590000000000018
   173   1                  12.635      57.760000000000005                  45.125
   174   1                   10.83      57.760000000000005      46.930000000000007
   175   1                   10.83      59.565000000000005      48.735000000000007
   176   1                  12.635      57.760000000000005      48.735000000000007
   177   1                  12.635      59.565000000000005      46.930000000000007
   178   1                   10.83      57.760000000000005      50.540000000000006
   179   1                   10.83      59.565000000000005      52.344999999999999
   180   1                  12.635      57.760000000000005      52.344999999999999
   181   1                  12.635      59.565000000000005      50.540000000000006
   182   1                   10.83      57.760000000000005      54.150000000000006
   183   1                   10.83      59.565000000000005      55.955000000000005
   184   1                  12.635      57.760000000000005      55.955000000000005
   185   1                  12.635      59.565000000000005      54.150000000000006
   186   1                   10.83      57.760000000000005      57.760000000000005
   187   1                   10.83      59.565000000000005      59.565000000000005
   188   1                  12.635      57.760000000000005      59.565000000000005
   189   1                  12.635      59.565000000000005      57.760000000000005
   190   1                   10.83      57.760000000000005      61.370000000000005
   191   1                   10.83      59.565000000000005      63.175000000000026
   192   1                  12.635      57.760000000000005      63.175000000000026
   193   1                  12.635      59.565000000000005      61.370000000000005
   194   1                   10.83      57.760000000000005      64.980000000000004
   195   1                   10.83      59.565000000000005      66.785000000000011
   196   1                  12.635      57.760000000000005      66.785000000000011
   197   1                  12.635      59.565000000000005      64.980000000000004
   198   1                   10.83      57.760000000000005      68.590000000000018
   199   1                  12.635      57.760000000000005       70.39500000000001
   200   1                  12.635      59.565000000000005      68.590000000000018
   201   1                   10.83      63.175000000000026      48.735000000000007
   202   1                  12.635      61.370000000000005      48.735000000000007
   203   1                  12.635      63.175000000000026      46.930000000000007
   204   1                   10.83      61.370000000000005      50.540000000000006
   205   1                   10.83      63.175000000000026      52.344999999999999
   206   1                  12.635      61.370000000000005      52.344999999999999
   207   1                  12.635      63.175000000000026      50.540000000000006
   208   1                   10.83      61.370000000000005      54.150000000000006
   209   1                   10.83      63.175000000000026      55.955000000000005
   210   1                  12.635      61.370000000000005      55.955000000000005
   211   1                  12.635      63.175000000000026      54.150000000000006
   212   1                   10.83      61.370000000000005      57.760000000000005
   213   1                   10.83      63.175000000000026      59.565000000000005
   214   1                  12.635      61.370000000000005      59.565000000000005
   215   1                  12.635      63.175000000000026      57.760000000000005
   216   1                   10.83      61.370000000000005      61.370000000000005
   217   1                   10.83      63.175000000000026      63.175000000000026
   218   1                  12.635      61.370000000000005      63.175000000000026
   219   1                  12.635      63.175000000000026      61.370000000000005
   220   1                   10.83      61.370000000000005      64.980000000000004
   221   1                   10.83      63.175000000000026      66.785000000000011
   222   1                  12.635      61.370000000000005      66.785000000000011
   223   1                  12.635      63.175000000000026      64.980000000000004
   224   1                  12.635      63.175000000000026      68.590000000000018
   225   1                   10.83      66.785000000000011      48.735000000000007
   226   1                  12.635      64.980000000000004      48.735000000000007
   227   1                  12.635      66.785000000000011      46.930000000000007
   228   1                   10.83      64.980000000000004      50.540000000000006
   229   1                   10.83      66.785000000000011      52.344999999999999
   230   1                  12.635      64.980000000000004      52.344999999999999
   231   1                  12.635      66.785000000000011      50.540000000000006
   232   1                   10.83      64.980000000000004      54.150000000000006
   233   1                   10.83      66.785000000000011      55.955000000000005
   234   1                  12.635      64.980000000000004      55.955000000000005
   235   1                  12.635      66.785000000000011      54.150000000000006
   236   1                   10.83      64.980000000000004      57.760000000000005
   237   1                   10.83      66.785000000000011      59.565000000000005
   238   1                  12.635      64.980000000000004      59.565000000000005
   239   1                  12.635      66.785000000000011      57.760000000000005
   240   1                   10.83      64.980000000000004      61.370000000000005
   241   1                   10.83      66.785000000000011      63.175000000000026
   242   1                  12.635      64.980000000000004      63.175000000000026
   243   1                  12.635      66.785000000000011      61.370000000000005
   244   1                   10.83      64.980000000000004      64.980000000000004
   245   1                   10.83      66.785000000000011      66.785000000000011
   246   1                  12.635      64.980000000000004      66.785000000000011
   247   1                  12.635      66.785000000000011      64.980000000000004
   248   1                  12.635      66.785000000000011      68.590000000000018
   249   1                  12.635      68.590000000000018      48.735000000000007
   250   1                  12.635      68.590000000000018      52.344999999999999
   251   1                  12.635      68.590000000000018      55.955000000000005
   252   1                   10.83      68.590000000000018      57.760000000000005
   253   1                  12.635      68.590000000000018      59.565000000000005
   254   1                  12.635       70.39500000000001      57.760000000000005
   255   1                  12.635      68.590000000000018      63.175000000000026
   256   1                  12.635      68.590000000000018      66.785000000000011
   257   1      16.245000000000001      41.515000000000008      57.760000000000005
   258   1      14.440000000000007                  45.125      48.735000000000007
   259   1      16.245000000000001      43.320000000000007      48.735000000000007
   260   1      16.245000000000001                  45.125      46.930000000000007
   261   1      14.440000000000007                  45.125      52.344999999999999
   262   1      16.245000000000001      43.320000000000007      52.344999999999999
   263   1      16.245000000000001                  45.125      50.540000000000006
   264   1      14.440000000000007                  45.125      55.955000000000005
   265   1      16.245000000000001      43.320000000000007      55.955000000000005
   266   1      16.245000000000001                  45.125      54.150000000000006
   267   1      14.440000000000007      43.320000000000007      57.760000000000005
   268   1      14.440000000000007                  45.125      59.565000000000005
   269   1      16.245000000000001      43.320000000000007      59.565000000000005
   270   1      16.245000000000001                  45.125      57.760000000000005
   271   1      14.440000000000007                  45.125      63.175000000000026
   272   1      16.245000000000001      43.320000000000007      63.175000000000026
   273   1      16.245000000000001                  45.125      61.370000000000005
   274   1      14.440000000000007                  45.125      66.785000000000011
   275   1      16.245000000000001      43.320000000000007      66.785000000000011
   276   1      16.245000000000001                  45.125      64.980000000000004
   277   1      16.245000000000001                  45.125      68.590000000000018
   278   1      14.440000000000007      48.735000000000007                  45.125
   279   1      16.245000000000001      46.930000000000007                  45.125
   280   1      16.245000000000001      48.735000000000007      43.320000000000007
   281   1      14.440000000000007      46.930000000000007      46.930000000000007
   282   1      14.440000000000007      48.735000000000007      48.735000000000007
   283   1      16.245000000000001      46.930000000000007      48.735000000000007
   284   1      16.245000000000001      48.735000000000007      46.930000000000007
   285   1      14.440000000000007      46.930000000000007      50.540000000000006
   286   1      14.440000000000007      48.735000000000007      52.344999999999999
   287   1      16.245000000000001      46.930000000000007      52.344999999999999
   288   1      16.245000000000001      48.735000000000007      50.540000000000006
   289   1      14.440000000000007      46.930000000000007      54.150000000000006
   290   1      14.440000000000007      48.735000000000007      55.955000000000005
   291   1      16.245000000000001      46.930000000000007      55.955000000000005
   292   1      16.245000000000001      48.735000000000007      54.150000000000006
   293   1      14.440000000000007      46.930000000000007      57.760000000000005
   294   1      14.440000000000007      48.735000000000007      59.565000000000005
   295   1      16.245000000000001      46.930000000000007      59.565000000000005
   296   1      16.245000000000001      48.735000000000007      57.760000000000005
   297   1      14.440000000000007      46.930000000000007      61.370000000000005
   298   1      14.440000000000007      48.735000000000007      63.175000000000026
   299   1      16.245000000000001      46.930000000000007      63.175000000000026
   300   1      16.245000000000001      48.735000000000007      61.370000000000005
   301   1      14.440000000000007      46.930000000000007      64.980000000000004
   302   1      14.440000000000007      48.735000000000007      66.785000000000011
   303   1      16.245000000000001      46.930000000000007      66.785000000000011
   304   1      16.245000000000001      48.735000000000007      64.980000000000004
   305   1      14.440000000000007      46.930000000000007      68.590000000000018
   306   1      14.440000000000007      48.735000000000007       70.39500000000001
   307   1      16.245000000000001      46.930000000000007       70.39500000000001
   308   1      16.245000000000001      48.735000000000007      68.590000000000018
   309   1      16.245000000000001      48.735000000000007      72.200000000000017
   310   1      14.440000000000007      52.344999999999999                  45.125
   311   1      16.245000000000001      50.540000000000006                  45.125
   312   1      16.245000000000001      52.344999999999999      43.320000000000007
   313   1      14.440000000000007      50.540000000000006      46.930000000000007
   314   1      14.440000000000007      52.344999999999999      48.735000000000007
   315   1      16.245000000000001      50.540000000000006      48.735000000000007
   316   1      16.245000000000001      52.344999999999999      46.930000000000007
   317   1      14.440000000000007      50.540000000000006      50.540000000000006
   318   1      14.440000000000007      52.344999999999999      52.344999999999999
   319   1      16.245000000000001      50.540000000000006      52.344999999999999
   320   1      16.245000000000001      52.344999999999999      50.540000000000006
   321   1      14.440000000000007      50.540000000000006      54.150000000000006
   322   1      14.440000000000007      52.344999999999999      55.955000000000005
   323   1      16.245000000000001      50.540000000000006      55.955000000000005
   324   1      16.245000000000001      52.344999999999999      54.150000000000006
   325   1      14.440000000000007      50.540000000000006      57.760000000000005
   326   1      14.440000000000007      52.344999999999999      59.565000000000005
   327   1      16.245000000000001      50.540000000000006      59.565000000000005
   328   1      16.245000000000001      52.344999999999999      57.760000000000005
   329   1      14.440000000000007      50.540000000000006      61.370000000000005
   330   1      14.440000000000007      52.344999999999999      63.175000000000026
   331   1      16.245000000000001      50.540000000000006      63.175000000000026
   332   1      16.245000000000001      52.344999999999999      61.370000000000005
   333   1      14.440000000000007      50.540000000000006      64.980000000000004
   334   1      14.440000000000007      52.344999999999999      66.785000000000011
   335   1      16.245000000000001      50.540000000000006      66.785000000000011
   336   1      16.245000000000001      52.344999999999999      64.980000000000004
   337   1      14.440000000000007      50.540000000000006      68.590000000000018
   338   1      14.440000000000007      52.344999999999999       70.39500000000001
   339   1      16.245000000000001      50.540000000000006       70.39500000000001
   340   1      16.245000000000001      52.344999999999999      68.590000000000018
   341   1      16.245000000000001      52.344999999999999      72.200000000000017
   342   1      14.440000000000007      55.955000000000005                  45.125
   343   1      16.245000000000001      54.150000000000006                  45.125
   344   1      16.245000000000001      55.955000000000005      43.320000000000007
   345   1      14.440000000000007      54.150000000000006      46.930000000000007
   346   1      14.440000000000007      55.955000000000005      48.735000000000007
   347   1      16.245000000000001      54.150000000000006      48.735000000000007
   348   1      16.245000000000001      55.955000000000005      46.930000000000007
   349   1      14.440000000000007      54.150000000000006      50.540000000000006
   350   1      14.440000000000007      55.955000000000005      52.344999999999999
   351   1      16.245000000000001      54.150000000000006      52.344999999999999
   352   1      16.245000000000001      55.955000000000005      50.540000000000006
   353   1      14.440000000000007      54.150000000000006      54.150000000000006
   354   1      14.440000000000007      55.955000000000005      55.955000000000005
   355   1      16.245000000000001      54.150000000000006      55.955000000000005
   356   1      16.245000000000001      55.955000000000005      54.150000000000006
   357   1      14.440000000000007      54.150000000000006      57.760000000000005
   358   1      14.440000000000007      55.955000000000005      59.565000000000005