model_files/Co/Co_3000/Co_210/data.Co_210_hcp_2899 (written by ASE) 

2899 	 atoms 
1  atom types
0.0                      29  xlo xhi
0.0                      29  ylo yhi
0.0                      29  zlo zhi


Atoms 

     1   1                       0      12.550000000000001      13.804999999999998
     2   1                       0      13.804999999999998      12.550000000000001
     3   1                       0      13.804999999999998                   15.06
     4   1                       0                   15.06      13.804999999999998
     5   1      2.5100000000000016      7.5300000000000011      8.7850000000000001
     6   1      2.5100000000000016      7.5300000000000011                  11.295
     7   1      2.5100000000000016      7.5300000000000011      13.804999999999998
     8   1      2.5100000000000016      7.5300000000000011      16.315000000000001
     9   1      2.5100000000000016      7.5300000000000011      18.824999999999999
    10   1      2.5100000000000016      8.7850000000000001      7.5300000000000011
    11   1      1.2550000000000008      10.039999999999999      10.039999999999999
    12   1      2.5100000000000016      8.7850000000000001      10.039999999999999
    13   1      2.5100000000000016      10.039999999999999      8.7850000000000001
    14   1      1.2550000000000008      10.039999999999999      12.550000000000001
    15   1      2.5100000000000016      8.7850000000000001      12.550000000000001
    16   1      2.5100000000000016      10.039999999999999                  11.295
    17   1      1.2550000000000008      10.039999999999999                   15.06
    18   1      2.5100000000000016      8.7850000000000001                   15.06
    19   1      2.5100000000000016      10.039999999999999      13.804999999999998
    20   1      1.2550000000000008      10.039999999999999                   17.57
    21   1      2.5100000000000016      8.7850000000000001                   17.57
    22   1      2.5100000000000016      10.039999999999999      16.315000000000001
    23   1      2.5100000000000016      8.7850000000000001      20.079999999999998
    24   1      2.5100000000000016      10.039999999999999      18.824999999999999
    25   1      2.5100000000000016                  11.295      7.5300000000000011
    26   1      1.2550000000000008      12.550000000000001      10.039999999999999
    27   1      2.5100000000000016                  11.295      10.039999999999999
    28   1      2.5100000000000016      12.550000000000001      8.7850000000000001
    29   1      1.2550000000000008                  11.295                  11.295
    30   1      1.2550000000000008      12.550000000000001      12.550000000000001
    31   1      2.5100000000000016                  11.295      12.550000000000001
    32   1      2.5100000000000016      12.550000000000001                  11.295
    33   1      1.2550000000000008                  11.295      13.804999999999998
    34   1      1.2550000000000008      12.550000000000001                   15.06
    35   1      2.5100000000000016                  11.295                   15.06
    36   1      2.5100000000000016      12.550000000000001      13.804999999999998
    37   1      1.2550000000000008                  11.295      16.315000000000001
    38   1      1.2550000000000008      12.550000000000001                   17.57
    39   1      2.5100000000000016                  11.295                   17.57
    40   1      2.5100000000000016      12.550000000000001      16.315000000000001
    41   1      2.5100000000000016                  11.295      20.079999999999998
    42   1      2.5100000000000016      12.550000000000001      18.824999999999999
    43   1      2.5100000000000016      13.804999999999998      7.5300000000000011
    44   1      1.2550000000000008                   15.06      10.039999999999999
    45   1      2.5100000000000016      13.804999999999998      10.039999999999999
    46   1      2.5100000000000016                   15.06      8.7850000000000001
    47   1      1.2550000000000008      13.804999999999998                  11.295
    48   1      1.2550000000000008                   15.06      12.550000000000001
    49   1      2.5100000000000016      13.804999999999998      12.550000000000001
    50   1      2.5100000000000016                   15.06                  11.295
    51   1      1.2550000000000008      13.804999999999998      13.804999999999998
    52   1      1.2550000000000008                   15.06                   15.06
    53   1      2.5100000000000016      13.804999999999998                   15.06
    54   1      2.5100000000000016                   15.06      13.804999999999998
    55   1      1.2550000000000008      13.804999999999998      16.315000000000001
    56   1      1.2550000000000008                   15.06                   17.57
    57   1      2.5100000000000016      13.804999999999998                   17.57
    58   1      2.5100000000000016                   15.06      16.315000000000001
    59   1      2.5100000000000016      13.804999999999998      20.079999999999998
    60   1      2.5100000000000016                   15.06      18.824999999999999
    61   1      2.5100000000000016      16.315000000000001      7.5300000000000011
    62   1      1.2550000000000008                   17.57      10.039999999999999
    63   1      2.5100000000000016      16.315000000000001      10.039999999999999
    64   1      2.5100000000000016                   17.57      8.7850000000000001
    65   1      1.2550000000000008      16.315000000000001                  11.295
    66   1      1.2550000000000008                   17.57      12.550000000000001
    67   1      2.5100000000000016      16.315000000000001      12.550000000000001
    68   1      2.5100000000000016                   17.57                  11.295
    69   1      1.2550000000000008      16.315000000000001      13.804999999999998
    70   1      1.2550000000000008                   17.57                   15.06
    71   1      2.5100000000000016      16.315000000000001                   15.06
    72   1      2.5100000000000016                   17.57      13.804999999999998
    73   1      1.2550000000000008      16.315000000000001      16.315000000000001
    74   1      1.2550000000000008                   17.57                   17.57
    75   1      2.5100000000000016      16.315000000000001                   17.57
    76   1      2.5100000000000016                   17.57      16.315000000000001
    77   1      2.5100000000000016      16.315000000000001      20.079999999999998
    78   1      2.5100000000000016                   17.57      18.824999999999999
    79   1      2.5100000000000016      18.824999999999999      7.5300000000000011
    80   1      2.5100000000000016      18.824999999999999      10.039999999999999
    81   1      2.5100000000000016      20.079999999999998      8.7850000000000001
    82   1      2.5100000000000016      18.824999999999999      12.550000000000001
    83   1      2.5100000000000016      20.079999999999998                  11.295
    84   1      2.5100000000000016      18.824999999999999                   15.06
    85   1      2.5100000000000016      20.079999999999998      13.804999999999998
    86   1      2.5100000000000016      18.824999999999999                   17.57
    87   1      2.5100000000000016      20.079999999999998      16.315000000000001
    88   1      2.5100000000000016      18.824999999999999      20.079999999999998
    89   1      2.5100000000000016      20.079999999999998      18.824999999999999
    90   1      3.7650000000000006      5.0199999999999996      5.0199999999999996
    91   1      5.0199999999999996      3.7650000000000006      5.0199999999999996
    92   1      5.0199999999999996      5.0199999999999996      3.7650000000000006
    93   1      3.7650000000000006      5.0199999999999996      7.5300000000000011
    94   1      5.0199999999999996      3.7650000000000006      7.5300000000000011
    95   1      5.0199999999999996      5.0199999999999996      6.2750000000000004
    96   1      3.7650000000000006      5.0199999999999996      10.039999999999999
    97   1      5.0199999999999996      3.7650000000000006      10.039999999999999
    98   1      5.0199999999999996      5.0199999999999996      8.7850000000000001
    99   1      3.7650000000000006      5.0199999999999996      12.550000000000001
   100   1      5.0199999999999996      3.7650000000000006      12.550000000000001
   101   1      5.0199999999999996      5.0199999999999996                  11.295
   102   1      3.7650000000000006      5.0199999999999996                   15.06
   103   1      5.0199999999999996      3.7650000000000006                   15.06
   104   1      5.0199999999999996      5.0199999999999996      13.804999999999998
   105   1      3.7650000000000006      5.0199999999999996                   17.57
   106   1      5.0199999999999996      3.7650000000000006                   17.57
   107   1      5.0199999999999996      5.0199999999999996      16.315000000000001
   108   1      3.7650000000000006      5.0199999999999996      20.079999999999998
   109   1      5.0199999999999996      3.7650000000000006      20.079999999999998
   110   1      5.0199999999999996      5.0199999999999996      18.824999999999999
   111   1      3.7650000000000006      5.0199999999999996      22.589999999999996
   112   1      5.0199999999999996      3.7650000000000006      22.589999999999996
   113   1      5.0199999999999996      5.0199999999999996      21.334999999999997
   114   1      5.0199999999999996      5.0199999999999996      23.844999999999999
   115   1      3.7650000000000006      7.5300000000000011      5.0199999999999996
   116   1      5.0199999999999996      6.2750000000000004      5.0199999999999996
   117   1      5.0199999999999996      7.5300000000000011      3.7650000000000006
   118   1      3.7650000000000006      6.2750000000000004      6.2750000000000004
   119   1      3.7650000000000006      7.5300000000000011      7.5300000000000011
   120   1      5.0199999999999996      6.2750000000000004      7.5300000000000011
   121   1      5.0199999999999996      7.5300000000000011      6.2750000000000004
   122   1      3.7650000000000006      6.2750000000000004      8.7850000000000001
   123   1      3.7650000000000006      7.5300000000000011      10.039999999999999
   124   1      5.0199999999999996      6.2750000000000004      10.039999999999999
   125   1      5.0199999999999996      7.5300000000000011      8.7850000000000001
   126   1      3.7650000000000006      6.2750000000000004                  11.295
   127   1      3.7650000000000006      7.5300000000000011      12.550000000000001
   128   1      5.0199999999999996      6.2750000000000004      12.550000000000001
   129   1      5.0199999999999996      7.5300000000000011                  11.295
   130   1      3.7650000000000006      6.2750000000000004      13.804999999999998
   131   1      3.7650000000000006      7.5300000000000011                   15.06
   132   1      5.0199999999999996      6.2750000000000004                   15.06
   133   1      5.0199999999999996      7.5300000000000011      13.804999999999998
   134   1      3.7650000000000006      6.2750000000000004      16.315000000000001
   135   1      3.7650000000000006      7.5300000000000011                   17.57
   136   1      5.0199999999999996      6.2750000000000004                   17.57
   137   1      5.0199999999999996      7.5300000000000011      16.315000000000001
   138   1      3.7650000000000006      6.2750000000000004      18.824999999999999
   139   1      3.7650000000000006      7.5300000000000011      20.079999999999998
   140   1      5.0199999999999996      6.2750000000000004      20.079999999999998
   141   1      5.0199999999999996      7.5300000000000011      18.824999999999999
   142   1      3.7650000000000006      6.2750000000000004      21.334999999999997
   143   1      3.7650000000000006      7.5300000000000011      22.589999999999996
   144   1      5.0199999999999996      6.2750000000000004      22.589999999999996
   145   1      5.0199999999999996      7.5300000000000011      21.334999999999997
   146   1      5.0199999999999996      7.5300000000000011      23.844999999999999
   147   1      3.7650000000000006      10.039999999999999      5.0199999999999996
   148   1      5.0199999999999996      8.7850000000000001      5.0199999999999996
   149   1      5.0199999999999996      10.039999999999999      3.7650000000000006
   150   1      3.7650000000000006      8.7850000000000001      6.2750000000000004
   151   1      3.7650000000000006      10.039999999999999      7.5300000000000011
   152   1      5.0199999999999996      8.7850000000000001      7.5300000000000011
   153   1      5.0199999999999996      10.039999999999999      6.2750000000000004
   154   1      3.7650000000000006      8.7850000000000001      8.7850000000000001
   155   1      3.7650000000000006      10.039999999999999      10.039999999999999
   156   1      5.0199999999999996      8.7850000000000001      10.039999999999999
   157   1      5.0199999999999996      10.039999999999999      8.7850000000000001
   158   1      3.7650000000000006      8.7850000000000001                  11.295
   159   1      3.7650000000000006      10.039999999999999      12.550000000000001
   160   1      5.0199999999999996      8.7850000000000001      12.550000000000001
   161   1      5.0199999999999996      10.039999999999999                  11.295
   162   1      3.7650000000000006      8.7850000000000001      13.804999999999998
   163   1      3.7650000000000006      10.039999999999999                   15.06
   164   1      5.0199999999999996      8.7850000000000001                   15.06
   165   1      5.0199999999999996      10.039999999999999      13.804999999999998
   166   1      3.7650000000000006      8.7850000000000001      16.315000000000001
   167   1      3.7650000000000006      10.039999999999999                   17.57
   168   1      5.0199999999999996      8.7850000000000001                   17.57
   169   1      5.0199999999999996      10.039999999999999      16.315000000000001
   170   1      3.7650000000000006      8.7850000000000001      18.824999999999999
   171   1      3.7650000000000006      10.039999999999999      20.079999999999998
   172   1      5.0199999999999996      8.7850000000000001      20.079999999999998
   173   1      5.0199999999999996      10.039999999999999      18.824999999999999
   174   1      3.7650000000000006      8.7850000000000001      21.334999999999997
   175   1      3.7650000000000006      10.039999999999999      22.589999999999996
   176   1      5.0199999999999996      8.7850000000000001      22.589999999999996
   177   1      5.0199999999999996      10.039999999999999      21.334999999999997
   178   1      5.0199999999999996      10.039999999999999      23.844999999999999
   179   1      3.7650000000000006      12.550000000000001      5.0199999999999996
   180   1      5.0199999999999996                  11.295      5.0199999999999996
   181   1      5.0199999999999996      12.550000000000001      3.7650000000000006
   182   1      3.7650000000000006                  11.295      6.2750000000000004
   183   1      3.7650000000000006      12.550000000000001      7.5300000000000011
   184   1      5.0199999999999996                  11.295      7.5300000000000011
   185   1      5.0199999999999996      12.550000000000001      6.2750000000000004
   186   1      3.7650000000000006                  11.295      8.7850000000000001
   187   1      3.7650000000000006      12.550000000000001      10.039999999999999
   188   1      5.0199999999999996                  11.295      10.039999999999999
   189   1      5.0199999999999996      12.550000000000001      8.7850000000000001
   190   1      3.7650000000000006                  11.295                  11.295
   191   1      3.7650000000000006      12.550000000000001      12.550000000000001
   192   1      5.0199999999999996                  11.295      12.550000000000001
   193   1      5.0199999999999996      12.550000000000001                  11.295
   194   1      3.7650000000000006                  11.295      13.804999999999998
   195   1      3.7650000000000006      12.550000000000001                   15.06
   196   1      5.0199999999999996                  11.295                   15.06
   197   1      5.0199999999999996      12.550000000000001      13.804999999999998
   198   1      3.7650000000000006                  11.295      16.315000000000001
   199   1      3.7650000000000006      12.550000000000001                   17.57
   200   1      5.0199999999999996                  11.295                   17.57
   201   1      5.0199999999999996      12.550000000000001      16.315000000000001
   202   1      3.7650000000000006                  11.295      18.824999999999999
   203   1      3.7650000000000006      12.550000000000001      20.079999999999998
   204   1      5.0199999999999996                  11.295      20.079999999999998
   205   1      5.0199999999999996      12.550000000000001      18.824999999999999
   206   1      3.7650000000000006                  11.295      21.334999999999997
   207   1      3.7650000000000006      12.550000000000001      22.589999999999996
   208   1      5.0199999999999996                  11.295      22.589999999999996
   209   1      5.0199999999999996      12.550000000000001      21.334999999999997
   210   1      5.0199999999999996      12.550000000000001      23.844999999999999
   211   1      3.7650000000000006                   15.06      5.0199999999999996
   212   1      5.0199999999999996      13.804999999999998      5.0199999999999996
   213   1      5.0199999999999996                   15.06      3.7650000000000006
   214   1      3.7650000000000006      13.804999999999998      6.2750000000000004
   215   1      3.7650000000000006                   15.06      7.5300000000000011
   216   1      5.0199999999999996      13.804999999999998      7.5300000000000011
   217   1      5.0199999999999996                   15.06      6.2750000000000004
   218   1      3.7650000000000006      13.804999999999998      8.7850000000000001
   219   1      3.7650000000000006                   15.06      10.039999999999999
   220   1      5.0199999999999996      13.804999999999998      10.039999999999999
   221   1      5.0199999999999996                   15.06      8.7850000000000001
   222   1      3.7650000000000006      13.804999999999998                  11.295
   223   1      3.7650000000000006                   15.06      12.550000000000001
   224   1      5.0199999999999996      13.804999999999998      12.550000000000001
   225   1      5.0199999999999996                   15.06                  11.295
   226   1      3.7650000000000006      13.804999999999998      13.804999999999998
   227   1      3.7650000000000006                   15.06                   15.06
   228   1      5.0199999999999996      13.804999999999998                   15.06
   229   1      5.0199999999999996                   15.06      13.804999999999998
   230   1      3.7650000000000006      13.804999999999998      16.315000000000001
   231   1      3.7650000000000006                   15.06                   17.57
   232   1      5.0199999999999996      13.804999999999998                   17.57
   233   1      5.0199999999999996                   15.06      16.315000000000001
   234   1      3.7650000000000006      13.804999999999998      18.824999999999999
   235   1      3.7650000000000006                   15.06      20.079999999999998
   236   1      5.0199999999999996      13.804999999999998      20.079999999999998
   237   1      5.0199999999999996                   15.06      18.824999999999999
   238   1      3.7650000000000006      13.804999999999998      21.334999999999997
   239   1      3.7650000000000006                   15.06      22.589999999999996
   240   1      5.0199999999999996      13.804999999999998      22.589999999999996
   241   1      5.0199999999999996                   15.06      21.334999999999997
   242   1      5.0199999999999996                   15.06      23.844999999999999
   243   1      3.7650000000000006                   17.57      5.0199999999999996
   244   1      5.0199999999999996      16.315000000000001      5.0199999999999996
   245   1      5.0199999999999996                   17.57      3.7650000000000006
   246   1      3.7650000000000006      16.315000000000001      6.2750000000000004
   247   1      3.7650000000000006                   17.57      7.5300000000000011
   248   1      5.0199999999999996      16.315000000000001      7.5300000000000011
   249   1      5.0199999999999996                   17.57      6.2750000000000004
   250   1      3.7650000000000006      16.315000000000001      8.7850000000000001
   251   1      3.7650000000000006                   17.57      10.039999999999999
   252   1      5.0199999999999996      16.315000000000001      10.039999999999999
   253   1      5.0199999999999996                   17.57      8.7850000000000001
   254   1      3.7650000000000006      16.315000000000001                  11.295
   255   1      3.7650000000000006                   17.57      12.550000000000001
   256   1      5.0199999999999996      16.315000000000001      12.550000000000001
   257   1      5.0199999999999996                   17.57                  11.295
   258   1      3.7650000000000006      16.315000000000001      13.804999999999998
   259   1      3.7650000000000006                   17.57                   15.06
   260   1      5.0199999999999996      16.315000000000001                   15.06
   261   1      5.0199999999999996                   17.57      13.804999999999998
   262   1      3.7650000000000006      16.315000000000001      16.315000000000001
   263   1      3.7650000000000006                   17.57                   17.57
   264   1      5.0199999999999996      16.315000000000001                   17.57
   265   1      5.0199999999999996                   17.57      16.315000000000001
   266   1      3.7650000000000006      16.315000000000001      18.824999999999999
   267   1      3.7650000000000006                   17.57      20.079999999999998
   268   1      5.0199999999999996      16.315000000000001      20.079999999999998
   269   1      5.0199999999999996                   17.57      18.824999999999999
   270   1      3.7650000000000006      16.315000000000001      21.334999999999997
   271   1      3.7650000000000006                   17.57      22.589999999999996
   272   1      5.0199999999999996      16.315000000000001      22.589999999999996
   273   1      5.0199999999999996                   17.57      21.334999999999997
   274   1      5.0199999999999996                   17.57      23.844999999999999
   275   1      3.7650000000000006      20.079999999999998      5.0199999999999996
   276   1      5.0199999999999996      18.824999999999999      5.0199999999999996
   277   1      5.0199999999999996      20.079999999999998      3.7650000000000006
   278   1      3.7650000000000006      18.824999999999999      6.2750000000000004
   279   1      3.7650000000000006      20.079999999999998      7.5300000000000011
   280   1      5.0199999999999996      18.824999999999999      7.5300000000000011
   281   1      5.0199999999999996      20.079999999999998      6.2750000000000004
   282   1      3.7650000000000006      18.824999999999999      8.7850000000000001
   283   1      3.7650000000000006      20.079999999999998      10.039999999999999
   284   1      5.0199999999999996      18.824999999999999      10.039999999999999
   285   1      5.0199999999999996      20.079999999999998      8.7850000000000001
   286   1      3.7650000000000006      18.824999999999999                  11.295
   287   1      3.7650000000000006      20.079999999999998      12.550000000000001
   288   1      5.0199999999999996      18.824999999999999      12.550000000000001
   289   1      5.0199999999999996      20.079999999999998                  11.295
   290   1      3.7650000000000006      18.824999999999999      13.804999999999998
   291   1      3.7650000000000006      20.079999999999998                   15.06
   292   1      5.0199999999999996      18.824999999999999                   15.06
   293   1      5.0199999999999996      20.079999999999998      13.804999999999998
   294   1      3.7650000000000006      18.824999999999999      16.315000000000001
   295   1      3.7650000000000006      20.079999999999998                   17.57
   296   1      5.0199999999999996      18.824999999999999                   17.57
   297   1      5.0199999999999996      20.079999999999998      16.315000000000001
   298   1      3.7650000000000006      18.824999999999999      18.824999999999999
   299   1      3.7650000000000006      20.079999999999998      20.079999999999998
   300   1      5.0199999999999996      18.824999999999999      20.079999999999998
   301   1      5.0199999999999996      20.079999999999998      18.824999999999999
   302   1      3.7650000000000006      18.824999999999999      21.334999999999997
   303   1      3.7650000000000006      20.079999999999998      22.589999999999996
   304   1      5.0199999999999996      18.824999999999999      22.589999999999996
   305   1      5.0199999999999996      20.079999999999998      21.334999999999997
   306   1      5.0199999999999996      20.079999999999998      23.844999999999999
   307   1      3.7650000000000006      22.589999999999996      5.0199999999999996
   308   1      5.0199999999999996      21.334999999999997      5.0199999999999996
   309   1      5.0199999999999996      22.589999999999996      3.7650000000000006
   310   1      3.7650000000000006      21.334999999999997      6.2750000000000004
   311   1      3.7650000000000006      22.589999999999996      7.5300000000000011
   312   1      5.0199999999999996      21.334999999999997      7.5300000000000011
   313   1      5.0199999999999996      22.589999999999996      6.2750000000000004
   314   1      3.7650000000000006      21.334999999999997      8.7850000000000001
   315   1      3.7650000000000006      22.589999999999996      10.039999999999999
   316   1      5.0199999999999996      21.334999999999997      10.039999999999999
   317   1      5.0199999999999996      22.589999999999996      8.7850000000000001
   318   1      3.7650000000000006      21.334999999999997                  11.295
   319   1      3.7650000000000006      22.589999999999996      12.550000000000001
   320   1      5.0199999999999996      21.334999999999997      12.550000000000001
   321   1      5.0199999999999996      22.589999999999996                  11.295
   322   1      3.7650000000000006      21.334999999999997      13.804999999999998
   323   1      3.7650000000000006      22.589999999999996                   15.06
   324   1      5.0199999999999996      21.334999999999997                   15.06
   325   1      5.0199999999999996      22.589999999999996      13.804999999999998
   326   1      3.7650000000000006      21.334999999999997      16.315000000000001
   327   1      3.7650000000000006      22.589999999999996                   17.57
   328   1      5.0199999999999996      21.334999999999997                   17.57
   329   1      5.0199999999999996      22.589999999999996      16.315000000000001
   330   1      3.7650000000000006      21.334999999999997      18.824999999999999
   331   1      3.7650000000000006      22.589999999999996      20.079999999999998
   332   1      5.0199999999999996      21.334999999999997      20.079999999999998
   333   1      5.0199999999999996      22.589999999999996      18.824999999999999
   334   1      3.7650000000000006      21.334999999999997      21.334999999999997
   335   1      3.7650000000000006      22.589999999999996      22.589999999999996
   336   1      5.0199999999999996      21.334999999999997      22.589999999999996
   337   1      5.0199999999999996      22.589999999999996      21.334999999999997
   338   1      5.0199999999999996      22.589999999999996      23.844999999999999
   339   1      5.0199999999999996      23.844999999999999      5.0199999999999996
   340   1      5.0199999999999996      23.844999999999999      7.5300000000000011
   341   1      5.0199999999999996      23.844999999999999      10.039999999999999
   342   1      5.0199999999999996      23.844999999999999      12.550000000000001
   343   1      5.0199999999999996      23.844999999999999                   15.06
   344   1      5.0199999999999996      23.844999999999999                   17.57
   345   1      5.0199999999999996      23.844999999999999      20.079999999999998
   346   1      5.0199999999999996      23.844999999999999      22.589999999999996
   347   1      7.5300000000000011      2.5100000000000016      8.7850000000000001
   348   1      7.5300000000000011      2.5100000000000016                  11.295
   349   1      7.5300000000000011      2.5100000000000016      13.804999999999998
   350   1      7.5300000000000011      2.5100000000000016      16.315000000000001
   351   1      7.5300000000000011      2.5100000000000016      18.824999999999999
   352   1      6.2750000000000004      5.0199999999999996      5.0199999999999996
   353   1      7.5300000000000011      3.7650000000000006      5.0199999999999996
   354   1      7.5300000000000011      5.0199999999999996      3.7650000000000006
   355   1      6.2750000000000004      3.7650000000000006      6.2750000000000004
   356   1      6.2750000000000004      5.0199999999999996      7.5300000000000011
   357   1      7.5300000000000011      3.7650000000000006      7.5300000000000011
   358   1      7.5300000000000011      5.0199999999999996      6.2750000000000004