model_files/CuAu/CuAu_30000/CuAu_554/CuAu_554_fcc_29683_temp.data (written by ASE) 

29683 	 atoms 
2  atom types
0.0                     129  xlo xhi
0.0                     129  ylo yhi
0.0                     129  zlo zhi


Atoms 

     1   1      1.8699999999999903      61.709999999999994      63.579999999999998
     2   1      1.8699999999999903      63.579999999999998      61.709999999999994
     3   1                     129      63.579999999999998      63.579999999999998
     4   1      1.8699999999999903      63.579999999999998      65.450000000000003
     5   1      1.8699999999999903      65.450000000000003      63.579999999999998
     6   1      5.6099999999999923      57.969999999999992      63.579999999999998
     7   1      3.7399999999999949      61.709999999999994      61.709999999999994
     8   1      5.6099999999999923      59.839999999999996      61.709999999999994
     9   1      5.6099999999999923      61.709999999999994      59.839999999999996
    10   1      3.7399999999999949      59.839999999999996      63.579999999999998
    11   1      3.7399999999999949      61.709999999999994      65.450000000000003
    12   1      5.6099999999999923      59.839999999999996      65.450000000000003
    13   1      5.6099999999999923      61.709999999999994      63.579999999999998
    14   1      5.6099999999999923      61.709999999999994      67.319999999999993
    15   1      5.6099999999999923      63.579999999999998      57.969999999999992
    16   1      3.7399999999999949      63.579999999999998      59.839999999999996
    17   1      3.7399999999999949      65.450000000000003      61.709999999999994
    18   1      5.6099999999999923      63.579999999999998      61.709999999999994
    19   1      5.6099999999999923      65.450000000000003      59.839999999999996
    20   1      3.7399999999999949      63.579999999999998      63.579999999999998
    21   1      3.7399999999999949      65.450000000000003      65.450000000000003
    22   1      5.6099999999999923      63.579999999999998      65.450000000000003
    23   1      5.6099999999999923      65.450000000000003      63.579999999999998
    24   1      3.7399999999999949      63.579999999999998      67.319999999999993
    25   1      5.6099999999999923      63.579999999999998      69.189999999999998
    26   1      5.6099999999999923      65.450000000000003      67.319999999999993
    27   1      5.6099999999999923      67.319999999999993      61.709999999999994
    28   1      3.7399999999999949      67.319999999999993      63.579999999999998
    29   1      5.6099999999999923      67.319999999999993      65.450000000000003
    30   1      5.6099999999999923      69.189999999999998      63.579999999999998
    31   1      9.3499999999999943       54.22999999999999      63.579999999999998
    32   1      7.4799999999999898      57.969999999999992      61.709999999999994
    33   1      9.3499999999999943      56.099999999999994      61.709999999999994
    34   1      9.3499999999999943      57.969999999999992      59.839999999999996
    35   1      7.4799999999999898      56.099999999999994      63.579999999999998
    36   1      7.4799999999999898      57.969999999999992      65.450000000000003
    37   1      9.3499999999999943      56.099999999999994      65.450000000000003
    38   1      9.3499999999999943      57.969999999999992      63.579999999999998
    39   1      9.3499999999999943      57.969999999999992      67.319999999999993
    40   1      7.4799999999999898      61.709999999999994      57.969999999999992
    41   1      9.3499999999999943      59.839999999999996      57.969999999999992
    42   1      9.3499999999999943      61.709999999999994      56.099999999999994
    43   1      7.4799999999999898      59.839999999999996      59.839999999999996
    44   1      7.4799999999999898      61.709999999999994      61.709999999999994
    45   1      9.3499999999999943      59.839999999999996      61.709999999999994
    46   1      9.3499999999999943      61.709999999999994      59.839999999999996
    47   1      7.4799999999999898      59.839999999999996      63.579999999999998
    48   1      7.4799999999999898      61.709999999999994      65.450000000000003
    49   1      9.3499999999999943      59.839999999999996      65.450000000000003
    50   1      9.3499999999999943      61.709999999999994      63.579999999999998
    51   1      7.4799999999999898      59.839999999999996      67.319999999999993
    52   1      7.4799999999999898      61.709999999999994      69.189999999999998
    53   1      9.3499999999999943      59.839999999999996      69.189999999999998
    54   1      9.3499999999999943      61.709999999999994      67.319999999999993
    55   1      9.3499999999999943      61.709999999999994      71.060000000000002
    56   1      9.3499999999999943      63.579999999999998       54.22999999999999
    57   1      7.4799999999999898      63.579999999999998      56.099999999999994
    58   1      7.4799999999999898      65.450000000000003      57.969999999999992
    59   1      9.3499999999999943      63.579999999999998      57.969999999999992
    60   1      9.3499999999999943      65.450000000000003      56.099999999999994
    61   1      7.4799999999999898      63.579999999999998      59.839999999999996
    62   1      7.4799999999999898      65.450000000000003      61.709999999999994
    63   1      9.3499999999999943      63.579999999999998      61.709999999999994
    64   1      9.3499999999999943      65.450000000000003      59.839999999999996
    65   1      7.4799999999999898      63.579999999999998      63.579999999999998
    66   1      7.4799999999999898      65.450000000000003      65.450000000000003
    67   1      9.3499999999999943      63.579999999999998      65.450000000000003
    68   1      9.3499999999999943      65.450000000000003      63.579999999999998
    69   1      7.4799999999999898      63.579999999999998      67.319999999999993
    70   1      7.4799999999999898      65.450000000000003      69.189999999999998
    71   1      9.3499999999999943      63.579999999999998      69.189999999999998
    72   1      9.3499999999999943      65.450000000000003      67.319999999999993
    73   1      7.4799999999999898      63.579999999999998      71.060000000000002
    74   1      9.3499999999999943      63.579999999999998      72.930000000000007
    75   1      9.3499999999999943      65.450000000000003      71.060000000000002
    76   1      9.3499999999999943      67.319999999999993      57.969999999999992
    77   1      7.4799999999999898      67.319999999999993      59.839999999999996
    78   1      7.4799999999999898      69.189999999999998      61.709999999999994
    79   1      9.3499999999999943      67.319999999999993      61.709999999999994
    80   1      9.3499999999999943      69.189999999999998      59.839999999999996
    81   1      7.4799999999999898      67.319999999999993      63.579999999999998
    82   1      7.4799999999999898      69.189999999999998      65.450000000000003
    83   1      9.3499999999999943      67.319999999999993      65.450000000000003
    84   1      9.3499999999999943      69.189999999999998      63.579999999999998
    85   1      7.4799999999999898      67.319999999999993      67.319999999999993
    86   1      9.3499999999999943      67.319999999999993      69.189999999999998
    87   1      9.3499999999999943      69.189999999999998      67.319999999999993
    88   1      9.3499999999999943      71.060000000000002      61.709999999999994
    89   1      7.4799999999999898      71.060000000000002      63.579999999999998
    90   1      9.3499999999999943      71.060000000000002      65.450000000000003
    91   1      9.3499999999999943      72.930000000000007      63.579999999999998
    92   1      13.089999999999989      50.489999999999988      63.579999999999998
    93   1      11.219999999999992       54.22999999999999      61.709999999999994
    94   1      13.089999999999989      52.359999999999992      61.709999999999994
    95   1      13.089999999999989       54.22999999999999      59.839999999999996
    96   1      11.219999999999992      52.359999999999992      63.579999999999998
    97   1      11.219999999999992       54.22999999999999      65.450000000000003
    98   1      13.089999999999989      52.359999999999992      65.450000000000003
    99   1      13.089999999999989       54.22999999999999      63.579999999999998
   100   1      13.089999999999989       54.22999999999999      67.319999999999993
   101   1      11.219999999999992      57.969999999999992      57.969999999999992
   102   1      13.089999999999989      56.099999999999994      57.969999999999992
   103   1      13.089999999999989      57.969999999999992      56.099999999999994
   104   1      11.219999999999992      56.099999999999994      59.839999999999996
   105   1      11.219999999999992      57.969999999999992      61.709999999999994
   106   1      13.089999999999989      56.099999999999994      61.709999999999994
   107   1      13.089999999999989      57.969999999999992      59.839999999999996
   108   1      11.219999999999992      56.099999999999994      63.579999999999998
   109   1      11.219999999999992      57.969999999999992      65.450000000000003
   110   1      13.089999999999989      56.099999999999994      65.450000000000003
   111   1      13.089999999999989      57.969999999999992      63.579999999999998
   112   1      11.219999999999992      56.099999999999994      67.319999999999993
   113   1      11.219999999999992      57.969999999999992      69.189999999999998
   114   1      13.089999999999989      56.099999999999994      69.189999999999998
   115   1      13.089999999999989      57.969999999999992      67.319999999999993
   116   1      13.089999999999989      57.969999999999992      71.060000000000002
   117   1      11.219999999999992      61.709999999999994       54.22999999999999
   118   1      13.089999999999989      59.839999999999996       54.22999999999999
   119   1      13.089999999999989      61.709999999999994      52.359999999999992
   120   1      11.219999999999992      59.839999999999996      56.099999999999994
   121   1      11.219999999999992      61.709999999999994      57.969999999999992
   122   1      13.089999999999989      59.839999999999996      57.969999999999992
   123   1      13.089999999999989      61.709999999999994      56.099999999999994
   124   1      11.219999999999992      59.839999999999996      59.839999999999996
   125   1      11.219999999999992      61.709999999999994      61.709999999999994
   126   1      13.089999999999989      59.839999999999996      61.709999999999994
   127   1      13.089999999999989      61.709999999999994      59.839999999999996
   128   1      11.219999999999992      59.839999999999996      63.579999999999998
   129   1      11.219999999999992      61.709999999999994      65.450000000000003
   130   1      13.089999999999989      59.839999999999996      65.450000000000003
   131   1      13.089999999999989      61.709999999999994      63.579999999999998
   132   1      11.219999999999992      59.839999999999996      67.319999999999993
   133   1      11.219999999999992      61.709999999999994      69.189999999999998
   134   1      13.089999999999989      59.839999999999996      69.189999999999998
   135   1      13.089999999999989      61.709999999999994      67.319999999999993
   136   1      11.219999999999992      59.839999999999996      71.060000000000002
   137   1      11.219999999999992      61.709999999999994      72.930000000000007
   138   1      13.089999999999989      59.839999999999996      72.930000000000007
   139   1      13.089999999999989      61.709999999999994      71.060000000000002
   140   1      13.089999999999989      61.709999999999994      74.799999999999997
   141   1      13.089999999999989      63.579999999999998      50.489999999999988
   142   1      11.219999999999992      63.579999999999998      52.359999999999992
   143   1      11.219999999999992      65.450000000000003       54.22999999999999
   144   1      13.089999999999989      63.579999999999998       54.22999999999999
   145   1      13.089999999999989      65.450000000000003      52.359999999999992
   146   1      11.219999999999992      63.579999999999998      56.099999999999994
   147   1      11.219999999999992      65.450000000000003      57.969999999999992
   148   1      13.089999999999989      63.579999999999998      57.969999999999992
   149   1      13.089999999999989      65.450000000000003      56.099999999999994
   150   1      11.219999999999992      63.579999999999998      59.839999999999996
   151   1      11.219999999999992      65.450000000000003      61.709999999999994
   152   1      13.089999999999989      63.579999999999998      61.709999999999994
   153   1      13.089999999999989      65.450000000000003      59.839999999999996
   154   1      11.219999999999992      63.579999999999998      63.579999999999998
   155   1      11.219999999999992      65.450000000000003      65.450000000000003
   156   1      13.089999999999989      63.579999999999998      65.450000000000003
   157   1      13.089999999999989      65.450000000000003      63.579999999999998
   158   1      11.219999999999992      63.579999999999998      67.319999999999993
   159   1      11.219999999999992      65.450000000000003      69.189999999999998
   160   1      13.089999999999989      63.579999999999998      69.189999999999998
   161   1      13.089999999999989      65.450000000000003      67.319999999999993
   162   1      11.219999999999992      63.579999999999998      71.060000000000002
   163   1      11.219999999999992      65.450000000000003      72.930000000000007
   164   1      13.089999999999989      63.579999999999998      72.930000000000007
   165   1      13.089999999999989      65.450000000000003      71.060000000000002
   166   1      11.219999999999992      63.579999999999998      74.799999999999997
   167   1      13.089999999999989      63.579999999999998      76.670000000000002
   168   1      13.089999999999989      65.450000000000003      74.799999999999997
   169   1      13.089999999999989      67.319999999999993       54.22999999999999
   170   1      11.219999999999992      67.319999999999993      56.099999999999994
   171   1      11.219999999999992      69.189999999999998      57.969999999999992
   172   1      13.089999999999989      67.319999999999993      57.969999999999992
   173   1      13.089999999999989      69.189999999999998      56.099999999999994
   174   1      11.219999999999992      67.319999999999993      59.839999999999996
   175   1      11.219999999999992      69.189999999999998      61.709999999999994
   176   1      13.089999999999989      67.319999999999993      61.709999999999994
   177   1      13.089999999999989      69.189999999999998      59.839999999999996
   178   1      11.219999999999992      67.319999999999993      63.579999999999998
   179   1      11.219999999999992      69.189999999999998      65.450000000000003
   180   1      13.089999999999989      67.319999999999993      65.450000000000003
   181   1      13.089999999999989      69.189999999999998      63.579999999999998
   182   1      11.219999999999992      67.319999999999993      67.319999999999993
   183   1      11.219999999999992      69.189999999999998      69.189999999999998
   184   1      13.089999999999989      67.319999999999993      69.189999999999998
   185   1      13.089999999999989      69.189999999999998      67.319999999999993
   186   1      11.219999999999992      67.319999999999993      71.060000000000002
   187   1      13.089999999999989      67.319999999999993      72.930000000000007
   188   1      13.089999999999989      69.189999999999998      71.060000000000002
   189   1      13.089999999999989      71.060000000000002      57.969999999999992
   190   1      11.219999999999992      71.060000000000002      59.839999999999996
   191   1      11.219999999999992      72.930000000000007      61.709999999999994
   192   1      13.089999999999989      71.060000000000002      61.709999999999994
   193   1      13.089999999999989      72.930000000000007      59.839999999999996
   194   1      11.219999999999992      71.060000000000002      63.579999999999998
   195   1      11.219999999999992      72.930000000000007      65.450000000000003
   196   1      13.089999999999989      71.060000000000002      65.450000000000003
   197   1      13.089999999999989      72.930000000000007      63.579999999999998
   198   1      11.219999999999992      71.060000000000002      67.319999999999993
   199   1      13.089999999999989      71.060000000000002      69.189999999999998
   200   1      13.089999999999989      72.930000000000007      67.319999999999993
   201   1      13.089999999999989      74.799999999999997      61.709999999999994
   202   1      11.219999999999992      74.799999999999997      63.579999999999998
   203   1      13.089999999999989      74.799999999999997      65.450000000000003
   204   1      13.089999999999989      76.670000000000002      63.579999999999998
   205   1      16.829999999999998      46.749999999999993      63.579999999999998
   206   1      14.959999999999994      50.489999999999988      61.709999999999994
   207   1      16.829999999999998       48.61999999999999      61.709999999999994
   208   1      16.829999999999998      50.489999999999988      59.839999999999996
   209   1      14.959999999999994       48.61999999999999      63.579999999999998
   210   1      14.959999999999994      50.489999999999988      65.450000000000003
   211   1      16.829999999999998       48.61999999999999      65.450000000000003
   212   1      16.829999999999998      50.489999999999988      63.579999999999998
   213   1      16.829999999999998      50.489999999999988      67.319999999999993
   214   1      14.959999999999994       54.22999999999999      57.969999999999992
   215   1      16.829999999999998      52.359999999999992      57.969999999999992
   216   1      16.829999999999998       54.22999999999999      56.099999999999994
   217   1      14.959999999999994      52.359999999999992      59.839999999999996
   218   1      14.959999999999994       54.22999999999999      61.709999999999994
   219   1      16.829999999999998      52.359999999999992      61.709999999999994
   220   1      16.829999999999998       54.22999999999999      59.839999999999996
   221   1      14.959999999999994      52.359999999999992      63.579999999999998
   222   1      14.959999999999994       54.22999999999999      65.450000000000003
   223   1      16.829999999999998      52.359999999999992      65.450000000000003
   224   1      16.829999999999998       54.22999999999999      63.579999999999998
   225   1      14.959999999999994      52.359999999999992      67.319999999999993
   226   1      14.959999999999994       54.22999999999999      69.189999999999998
   227   1      16.829999999999998      52.359999999999992      69.189999999999998
   228   1      16.829999999999998       54.22999999999999      67.319999999999993
   229   1      16.829999999999998       54.22999999999999      71.060000000000002
   230   1      14.959999999999994      57.969999999999992       54.22999999999999
   231   1      16.829999999999998      56.099999999999994       54.22999999999999
   232   1      16.829999999999998      57.969999999999992      52.359999999999992
   233   1      14.959999999999994      56.099999999999994      56.099999999999994
   234   1      14.959999999999994      57.969999999999992      57.969999999999992
   235   1      16.829999999999998      56.099999999999994      57.969999999999992
   236   1      16.829999999999998      57.969999999999992      56.099999999999994
   237   1      14.959999999999994      56.099999999999994      59.839999999999996
   238   1      14.959999999999994      57.969999999999992      61.709999999999994
   239   1      16.829999999999998      56.099999999999994      61.709999999999994
   240   1      16.829999999999998      57.969999999999992      59.839999999999996
   241   1      14.959999999999994      56.099999999999994      63.579999999999998
   242   1      14.959999999999994      57.969999999999992      65.450000000000003
   243   1      16.829999999999998      56.099999999999994      65.450000000000003
   244   1      16.829999999999998      57.969999999999992      63.579999999999998
   245   1      14.959999999999994      56.099999999999994      67.319999999999993
   246   1      14.959999999999994      57.969999999999992      69.189999999999998
   247   1      16.829999999999998      56.099999999999994      69.189999999999998
   248   1      16.829999999999998      57.969999999999992      67.319999999999993
   249   1      14.959999999999994      56.099999999999994      71.060000000000002
   250   1      14.959999999999994      57.969999999999992      72.930000000000007
   251   1      16.829999999999998      56.099999999999994      72.930000000000007
   252   1      16.829999999999998      57.969999999999992      71.060000000000002
   253   1      16.829999999999998      57.969999999999992      74.799999999999997
   254   1      14.959999999999994      61.709999999999994      50.489999999999988
   255   1      16.829999999999998      59.839999999999996      50.489999999999988
   256   1      16.829999999999998      61.709999999999994       48.61999999999999
   257   1      14.959999999999994      59.839999999999996      52.359999999999992
   258   1      14.959999999999994      61.709999999999994       54.22999999999999
   259   1      16.829999999999998      59.839999999999996       54.22999999999999
   260   1      16.829999999999998      61.709999999999994      52.359999999999992
   261   1      14.959999999999994      59.839999999999996      56.099999999999994
   262   1      14.959999999999994      61.709999999999994      57.969999999999992
   263   1      16.829999999999998      59.839999999999996      57.969999999999992
   264   1      16.829999999999998      61.709999999999994      56.099999999999994
   265   1      14.959999999999994      59.839999999999996      59.839999999999996
   266   1      14.959999999999994      61.709999999999994      61.709999999999994
   267   1      16.829999999999998      59.839999999999996      61.709999999999994
   268   1      16.829999999999998      61.709999999999994      59.839999999999996
   269   1      14.959999999999994      59.839999999999996      63.579999999999998
   270   1      14.959999999999994      61.709999999999994      65.450000000000003
   271   1      16.829999999999998      59.839999999999996      65.450000000000003
   272   1      16.829999999999998      61.709999999999994      63.579999999999998
   273   1      14.959999999999994      59.839999999999996      67.319999999999993
   274   1      14.959999999999994      61.709999999999994      69.189999999999998
   275   1      16.829999999999998      59.839999999999996      69.189999999999998
   276   1      16.829999999999998      61.709999999999994      67.319999999999993
   277   1      14.959999999999994      59.839999999999996      71.060000000000002
   278   1      14.959999999999994      61.709999999999994      72.930000000000007
   279   1      16.829999999999998      59.839999999999996      72.930000000000007
   280   1      16.829999999999998      61.709999999999994      71.060000000000002
   281   1      14.959999999999994      59.839999999999996      74.799999999999997
   282   1      14.959999999999994      61.709999999999994      76.670000000000002
   283   1      16.829999999999998      59.839999999999996      76.670000000000002
   284   1      16.829999999999998      61.709999999999994      74.799999999999997
   285   1      16.829999999999998      61.709999999999994      78.539999999999992
   286   1      16.829999999999998      63.579999999999998      46.749999999999993
   287   1      14.959999999999994      63.579999999999998       48.61999999999999
   288   1      14.959999999999994      65.450000000000003      50.489999999999988
   289   1      16.829999999999998      63.579999999999998      50.489999999999988
   290   1      16.829999999999998      65.450000000000003       48.61999999999999
   291   1      14.959999999999994      63.579999999999998      52.359999999999992
   292   1      14.959999999999994      65.450000000000003       54.22999999999999
   293   1      16.829999999999998      63.579999999999998       54.22999999999999
   294   1      16.829999999999998      65.450000000000003      52.359999999999992
   295   1      14.959999999999994      63.579999999999998      56.099999999999994
   296   1      14.959999999999994      65.450000000000003      57.969999999999992
   297   1      16.829999999999998      63.579999999999998      57.969999999999992
   298   1      16.829999999999998      65.450000000000003      56.099999999999994
   299   1      14.959999999999994      63.579999999999998      59.839999999999996
   300   1      14.959999999999994      65.450000000000003      61.709999999999994
   301   1      16.829999999999998      63.579999999999998      61.709999999999994
   302   1      16.829999999999998      65.450000000000003      59.839999999999996
   303   1      14.959999999999994      63.579999999999998      63.579999999999998
   304   1      14.959999999999994      65.450000000000003      65.450000000000003
   305   1      16.829999999999998      63.579999999999998      65.450000000000003
   306   1      16.829999999999998      65.450000000000003      63.579999999999998
   307   1      14.959999999999994      63.579999999999998      67.319999999999993
   308   1      14.959999999999994      65.450000000000003      69.189999999999998
   309   1      16.829999999999998      63.579999999999998      69.189999999999998
   310   1      16.829999999999998      65.450000000000003      67.319999999999993
   311   1      14.959999999999994      63.579999999999998      71.060000000000002
   312   1      14.959999999999994      65.450000000000003      72.930000000000007
   313   1      16.829999999999998      63.579999999999998      72.930000000000007
   314   1      16.829999999999998      65.450000000000003      71.060000000000002
   315   1      14.959999999999994      63.579999999999998      74.799999999999997
   316   1      14.959999999999994      65.450000000000003      76.670000000000002
   317   1      16.829999999999998      63.579999999999998      76.670000000000002
   318   1      16.829999999999998      65.450000000000003      74.799999999999997
   319   1      14.959999999999994      63.579999999999998      78.539999999999992
   320   1      16.829999999999998      63.579999999999998      80.409999999999997
   321   1      16.829999999999998      65.450000000000003      78.539999999999992
   322   1      16.829999999999998      67.319999999999993      50.489999999999988
   323   1      14.959999999999994      67.319999999999993      52.359999999999992
   324   1      14.959999999999994      69.189999999999998       54.22999999999999
   325   1      16.829999999999998      67.319999999999993       54.22999999999999
   326   1      16.829999999999998      69.189999999999998      52.359999999999992
   327   1      14.959999999999994      67.319999999999993      56.099999999999994
   328   1      14.959999999999994      69.189999999999998      57.969999999999992
   329   1      16.829999999999998      67.319999999999993      57.969999999999992
   330   1      16.829999999999998      69.189999999999998      56.099999999999994
   331   1      14.959999999999994      67.319999999999993      59.839999999999996
   332   1      14.959999999999994      69.189999999999998      61.709999999999994
   333   1      16.829999999999998      67.319999999999993      61.709999999999994
   334   1      16.829999999999998      69.189999999999998      59.839999999999996
   335   1      14.959999999999994      67.319999999999993      63.579999999999998
   336   1      14.959999999999994      69.189999999999998      65.450000000000003
   337   1      16.829999999999998      67.319999999999993      65.450000000000003
   338   1      16.829999999999998      69.189999999999998      63.579999999999998
   339   1      14.959999999999994      67.319999999999993      67.319999999999993
   340   1      14.959999999999994      69.189999999999998      69.189999999999998
   341   1      16.829999999999998      67.319999999999993      69.189999999999998
   342   1      16.829999999999998      69.189999999999998      67.319999999999993
   343   1      14.959999999999994      67.319999999999993      71.060000000000002
   344   1      14.959999999999994      69.189999999999998      72.930000000000007
   345   1      16.829999999999998      67.319999999999993      72.930000000000007
   346   1      16.829999999999998      69.189999999999998      71.060000000000002
   347   1      14.959999999999994      67.319999999999993      74.799999999999997
   348   1      16.829999999999998      67.319999999999993      76.670000000000002
   349   1      16.829999999999998      69.189999999999998      74.799999999999997
   350   1      16.829999999999998      71.060000000000002       54.22999999999999
   351   1      14.959999999999994      71.060000000000002      56.099999999999994
   352   1      14.959999999999994      72.930000000000007      57.969999999999992
   353   1      16.829999999999998      71.060000000000002      57.969999999999992
   354   1      16.829999999999998      72.930000000000007      56.099999999999994
   355   1      14.959999999999994      71.060000000000002      59.839999999999996
   356   1      14.959999999999994      72.930000000000007      61.709999999999994
   357   1      16.829999999999998      71.060000000000002      61.709999999999994
   358   1      16.829999999999998      72.930000000000007      59.839999999999996