model_files/Ni/Ni_30000/Ni_531/data.Ni_531_fcc_29859 (written by ASE) 

29859 	 atoms 
1  atom types
0.0                      97  xlo xhi
0.0                      97  ylo yhi
0.0                      97  zlo zhi


Atoms 

     1   1  7.1054273576010019e-15      45.760000000000005       47.52000000000001
     2   1  7.1054273576010019e-15       47.52000000000001      45.760000000000005
     3   1  7.1054273576010019e-15       47.52000000000001      49.280000000000001
     4   1  7.1054273576010019e-15      49.280000000000001       47.52000000000001
     5   1      3.5200000000000098      40.480000000000011      45.760000000000005
     6   1      3.5200000000000098      42.240000000000009      44.000000000000007
     7   1      3.5200000000000098      40.480000000000011      49.280000000000001
     8   1      3.5200000000000098      42.240000000000009       47.52000000000001
     9   1      3.5200000000000098      42.240000000000009      51.040000000000013
    10   1      3.5200000000000098      44.000000000000007      42.240000000000009
    11   1      3.5200000000000098      45.760000000000005      40.480000000000011
    12   1       1.760000000000012      44.000000000000007      44.000000000000007
    13   1       1.760000000000012      45.760000000000005      45.760000000000005
    14   1      3.5200000000000098      44.000000000000007      45.760000000000005
    15   1      3.5200000000000098      45.760000000000005      44.000000000000007
    16   1       1.760000000000012      44.000000000000007       47.52000000000001
    17   1       1.760000000000012      45.760000000000005      49.280000000000001
    18   1      3.5200000000000098      44.000000000000007      49.280000000000001
    19   1      3.5200000000000098      45.760000000000005       47.52000000000001
    20   1       1.760000000000012      44.000000000000007      51.040000000000013
    21   1      3.5200000000000098      44.000000000000007      52.800000000000004
    22   1      3.5200000000000098      45.760000000000005      51.040000000000013
    23   1      3.5200000000000098      45.760000000000005      54.560000000000016
    24   1      3.5200000000000098       47.52000000000001      42.240000000000009
    25   1      3.5200000000000098      49.280000000000001      40.480000000000011
    26   1       1.760000000000012       47.52000000000001      44.000000000000007
    27   1       1.760000000000012      49.280000000000001      45.760000000000005
    28   1      3.5200000000000098       47.52000000000001      45.760000000000005
    29   1      3.5200000000000098      49.280000000000001      44.000000000000007
    30   1       1.760000000000012       47.52000000000001       47.52000000000001
    31   1       1.760000000000012      49.280000000000001      49.280000000000001
    32   1      3.5200000000000098       47.52000000000001      49.280000000000001
    33   1      3.5200000000000098      49.280000000000001       47.52000000000001
    34   1       1.760000000000012       47.52000000000001      51.040000000000013
    35   1      3.5200000000000098       47.52000000000001      52.800000000000004
    36   1      3.5200000000000098      49.280000000000001      51.040000000000013
    37   1      3.5200000000000098      49.280000000000001      54.560000000000016
    38   1      3.5200000000000098      51.040000000000013      42.240000000000009
    39   1       1.760000000000012      51.040000000000013      44.000000000000007
    40   1      3.5200000000000098      51.040000000000013      45.760000000000005
    41   1      3.5200000000000098      52.800000000000004      44.000000000000007
    42   1       1.760000000000012      51.040000000000013       47.52000000000001
    43   1      3.5200000000000098      51.040000000000013      49.280000000000001
    44   1      3.5200000000000098      52.800000000000004       47.52000000000001
    45   1       1.760000000000012      51.040000000000013      51.040000000000013
    46   1      3.5200000000000098      51.040000000000013      52.800000000000004
    47   1      3.5200000000000098      52.800000000000004      51.040000000000013
    48   1      3.5200000000000098      54.560000000000016      45.760000000000005
    49   1      3.5200000000000098      54.560000000000016      49.280000000000001
    50   1      7.0400000000000063       35.20000000000001      44.000000000000007
    51   1      7.0400000000000063       35.20000000000001       47.52000000000001
    52   1      7.0400000000000063       35.20000000000001      51.040000000000013
    53   1      7.0400000000000063      36.960000000000008      38.720000000000006
    54   1      7.0400000000000063      38.720000000000006      36.960000000000008
    55   1      5.2800000000000082      38.720000000000006      42.240000000000009
    56   1      7.0400000000000063      36.960000000000008      42.240000000000009
    57   1      7.0400000000000063      38.720000000000006      40.480000000000011
    58   1      5.2800000000000082      38.720000000000006      45.760000000000005
    59   1      7.0400000000000063      36.960000000000008      45.760000000000005
    60   1      7.0400000000000063      38.720000000000006      44.000000000000007
    61   1      5.2800000000000082      36.960000000000008       47.52000000000001
    62   1      5.2800000000000082      38.720000000000006      49.280000000000001
    63   1      7.0400000000000063      36.960000000000008      49.280000000000001
    64   1      7.0400000000000063      38.720000000000006       47.52000000000001
    65   1      5.2800000000000082      38.720000000000006      52.800000000000004
    66   1      7.0400000000000063      36.960000000000008      52.800000000000004
    67   1      7.0400000000000063      38.720000000000006      51.040000000000013
    68   1      7.0400000000000063      36.960000000000008      56.320000000000007
    69   1      7.0400000000000063      38.720000000000006      54.560000000000016
    70   1      7.0400000000000063      38.720000000000006      58.080000000000013
    71   1      5.2800000000000082      42.240000000000009      38.720000000000006
    72   1      7.0400000000000063      40.480000000000011      38.720000000000006
    73   1      7.0400000000000063      42.240000000000009      36.960000000000008
    74   1      5.2800000000000082      40.480000000000011      40.480000000000011
    75   1      5.2800000000000082      42.240000000000009      42.240000000000009
    76   1      7.0400000000000063      40.480000000000011      42.240000000000009
    77   1      7.0400000000000063      42.240000000000009      40.480000000000011
    78   1      5.2800000000000082      40.480000000000011      44.000000000000007
    79   1      5.2800000000000082      42.240000000000009      45.760000000000005
    80   1      7.0400000000000063      40.480000000000011      45.760000000000005
    81   1      7.0400000000000063      42.240000000000009      44.000000000000007
    82   1      5.2800000000000082      40.480000000000011       47.52000000000001
    83   1      5.2800000000000082      42.240000000000009      49.280000000000001
    84   1      7.0400000000000063      40.480000000000011      49.280000000000001
    85   1      7.0400000000000063      42.240000000000009       47.52000000000001
    86   1      5.2800000000000082      40.480000000000011      51.040000000000013
    87   1      5.2800000000000082      42.240000000000009      52.800000000000004
    88   1      7.0400000000000063      40.480000000000011      52.800000000000004
    89   1      7.0400000000000063      42.240000000000009      51.040000000000013
    90   1      5.2800000000000082      40.480000000000011      54.560000000000016
    91   1      5.2800000000000082      42.240000000000009      56.320000000000007
    92   1      7.0400000000000063      40.480000000000011      56.320000000000007
    93   1      7.0400000000000063      42.240000000000009      54.560000000000016
    94   1      7.0400000000000063      42.240000000000009      58.080000000000013
    95   1      7.0400000000000063      44.000000000000007       35.20000000000001
    96   1      5.2800000000000082      45.760000000000005      38.720000000000006
    97   1      7.0400000000000063      44.000000000000007      38.720000000000006
    98   1      7.0400000000000063      45.760000000000005      36.960000000000008
    99   1      5.2800000000000082      44.000000000000007      40.480000000000011
   100   1      5.2800000000000082      45.760000000000005      42.240000000000009
   101   1      7.0400000000000063      44.000000000000007      42.240000000000009
   102   1      7.0400000000000063      45.760000000000005      40.480000000000011
   103   1      5.2800000000000082      44.000000000000007      44.000000000000007
   104   1      5.2800000000000082      45.760000000000005      45.760000000000005
   105   1      7.0400000000000063      44.000000000000007      45.760000000000005
   106   1      7.0400000000000063      45.760000000000005      44.000000000000007
   107   1      5.2800000000000082      44.000000000000007       47.52000000000001
   108   1      5.2800000000000082      45.760000000000005      49.280000000000001
   109   1      7.0400000000000063      44.000000000000007      49.280000000000001
   110   1      7.0400000000000063      45.760000000000005       47.52000000000001
   111   1      5.2800000000000082      44.000000000000007      51.040000000000013
   112   1      5.2800000000000082      45.760000000000005      52.800000000000004
   113   1      7.0400000000000063      44.000000000000007      52.800000000000004
   114   1      7.0400000000000063      45.760000000000005      51.040000000000013
   115   1      5.2800000000000082      44.000000000000007      54.560000000000016
   116   1      5.2800000000000082      45.760000000000005      56.320000000000007
   117   1      7.0400000000000063      44.000000000000007      56.320000000000007
   118   1      7.0400000000000063      45.760000000000005      54.560000000000016
   119   1      7.0400000000000063      44.000000000000007      59.840000000000011
   120   1      7.0400000000000063      45.760000000000005      58.080000000000013
   121   1      7.0400000000000063       47.52000000000001       35.20000000000001
   122   1      5.2800000000000082       47.52000000000001      36.960000000000008
   123   1      5.2800000000000082      49.280000000000001      38.720000000000006
   124   1      7.0400000000000063       47.52000000000001      38.720000000000006
   125   1      7.0400000000000063      49.280000000000001      36.960000000000008
   126   1      5.2800000000000082       47.52000000000001      40.480000000000011
   127   1      5.2800000000000082      49.280000000000001      42.240000000000009
   128   1      7.0400000000000063       47.52000000000001      42.240000000000009
   129   1      7.0400000000000063      49.280000000000001      40.480000000000011
   130   1      5.2800000000000082       47.52000000000001      44.000000000000007
   131   1      5.2800000000000082      49.280000000000001      45.760000000000005
   132   1      7.0400000000000063       47.52000000000001      45.760000000000005
   133   1      7.0400000000000063      49.280000000000001      44.000000000000007
   134   1      5.2800000000000082       47.52000000000001       47.52000000000001
   135   1      5.2800000000000082      49.280000000000001      49.280000000000001
   136   1      7.0400000000000063       47.52000000000001      49.280000000000001
   137   1      7.0400000000000063      49.280000000000001       47.52000000000001
   138   1      5.2800000000000082       47.52000000000001      51.040000000000013
   139   1      5.2800000000000082      49.280000000000001      52.800000000000004
   140   1      7.0400000000000063       47.52000000000001      52.800000000000004
   141   1      7.0400000000000063      49.280000000000001      51.040000000000013
   142   1      5.2800000000000082       47.52000000000001      54.560000000000016
   143   1      5.2800000000000082      49.280000000000001      56.320000000000007
   144   1      7.0400000000000063       47.52000000000001      56.320000000000007
   145   1      7.0400000000000063      49.280000000000001      54.560000000000016
   146   1      5.2800000000000082       47.52000000000001      58.080000000000013
   147   1      7.0400000000000063       47.52000000000001      59.840000000000011
   148   1      7.0400000000000063      49.280000000000001      58.080000000000013
   149   1      7.0400000000000063      51.040000000000013       35.20000000000001
   150   1      5.2800000000000082      52.800000000000004      38.720000000000006
   151   1      7.0400000000000063      51.040000000000013      38.720000000000006
   152   1      7.0400000000000063      52.800000000000004      36.960000000000008
   153   1      5.2800000000000082      51.040000000000013      40.480000000000011
   154   1      5.2800000000000082      52.800000000000004      42.240000000000009
   155   1      7.0400000000000063      51.040000000000013      42.240000000000009
   156   1      7.0400000000000063      52.800000000000004      40.480000000000011
   157   1      5.2800000000000082      51.040000000000013      44.000000000000007
   158   1      5.2800000000000082      52.800000000000004      45.760000000000005
   159   1      7.0400000000000063      51.040000000000013      45.760000000000005
   160   1      7.0400000000000063      52.800000000000004      44.000000000000007
   161   1      5.2800000000000082      51.040000000000013       47.52000000000001
   162   1      5.2800000000000082      52.800000000000004      49.280000000000001
   163   1      7.0400000000000063      51.040000000000013      49.280000000000001
   164   1      7.0400000000000063      52.800000000000004       47.52000000000001
   165   1      5.2800000000000082      51.040000000000013      51.040000000000013
   166   1      5.2800000000000082      52.800000000000004      52.800000000000004
   167   1      7.0400000000000063      51.040000000000013      52.800000000000004
   168   1      7.0400000000000063      52.800000000000004      51.040000000000013
   169   1      5.2800000000000082      51.040000000000013      54.560000000000016
   170   1      5.2800000000000082      52.800000000000004      56.320000000000007
   171   1      7.0400000000000063      51.040000000000013      56.320000000000007
   172   1      7.0400000000000063      52.800000000000004      54.560000000000016
   173   1      7.0400000000000063      51.040000000000013      59.840000000000011
   174   1      7.0400000000000063      52.800000000000004      58.080000000000013
   175   1      7.0400000000000063      54.560000000000016      38.720000000000006
   176   1      7.0400000000000063      56.320000000000007      36.960000000000008
   177   1      5.2800000000000082      54.560000000000016      40.480000000000011
   178   1      5.2800000000000082      56.320000000000007      42.240000000000009
   179   1      7.0400000000000063      54.560000000000016      42.240000000000009
   180   1      7.0400000000000063      56.320000000000007      40.480000000000011
   181   1      5.2800000000000082      54.560000000000016      44.000000000000007
   182   1      5.2800000000000082      56.320000000000007      45.760000000000005
   183   1      7.0400000000000063      54.560000000000016      45.760000000000005
   184   1      7.0400000000000063      56.320000000000007      44.000000000000007
   185   1      5.2800000000000082      54.560000000000016       47.52000000000001
   186   1      5.2800000000000082      56.320000000000007      49.280000000000001
   187   1      7.0400000000000063      54.560000000000016      49.280000000000001
   188   1      7.0400000000000063      56.320000000000007       47.52000000000001
   189   1      5.2800000000000082      54.560000000000016      51.040000000000013
   190   1      5.2800000000000082      56.320000000000007      52.800000000000004
   191   1      7.0400000000000063      54.560000000000016      52.800000000000004
   192   1      7.0400000000000063      56.320000000000007      51.040000000000013
   193   1      5.2800000000000082      54.560000000000016      54.560000000000016
   194   1      7.0400000000000063      54.560000000000016      56.320000000000007
   195   1      7.0400000000000063      56.320000000000007      54.560000000000016
   196   1      7.0400000000000063      56.320000000000007      58.080000000000013
   197   1      7.0400000000000063      58.080000000000013      38.720000000000006
   198   1      7.0400000000000063      58.080000000000013      42.240000000000009
   199   1      7.0400000000000063      58.080000000000013      45.760000000000005
   200   1      7.0400000000000063      59.840000000000011      44.000000000000007
   201   1      5.2800000000000082      58.080000000000013       47.52000000000001
   202   1      7.0400000000000063      58.080000000000013      49.280000000000001
   203   1      7.0400000000000063      59.840000000000011       47.52000000000001
   204   1      7.0400000000000063      58.080000000000013      52.800000000000004
   205   1      7.0400000000000063      59.840000000000011      51.040000000000013
   206   1      7.0400000000000063      58.080000000000013      56.320000000000007
   207   1      10.560000000000009      28.160000000000011       47.52000000000001
   208   1      10.560000000000009      31.680000000000007      36.960000000000008
   209   1      10.560000000000009      29.920000000000005      42.240000000000009
   210   1      10.560000000000009      31.680000000000007      40.480000000000011
   211   1      8.8000000000000114      31.680000000000007      45.760000000000005
   212   1      10.560000000000009      29.920000000000005      45.760000000000005
   213   1      10.560000000000009      31.680000000000007      44.000000000000007
   214   1      8.8000000000000114      31.680000000000007      49.280000000000001
   215   1      10.560000000000009      29.920000000000005      49.280000000000001
   216   1      10.560000000000009      31.680000000000007       47.52000000000001
   217   1      10.560000000000009      29.920000000000005      52.800000000000004
   218   1      10.560000000000009      31.680000000000007      51.040000000000013
   219   1      10.560000000000009      31.680000000000007      54.560000000000016
   220   1      10.560000000000009      31.680000000000007      58.080000000000013
   221   1      8.8000000000000114       35.20000000000001       35.20000000000001
   222   1      10.560000000000009      33.440000000000012       35.20000000000001
   223   1      10.560000000000009       35.20000000000001      33.440000000000012
   224   1      8.8000000000000114       35.20000000000001      38.720000000000006
   225   1      10.560000000000009      33.440000000000012      38.720000000000006
   226   1      10.560000000000009       35.20000000000001      36.960000000000008
   227   1      8.8000000000000114      33.440000000000012      40.480000000000011
   228   1      8.8000000000000114       35.20000000000001      42.240000000000009
   229   1      10.560000000000009      33.440000000000012      42.240000000000009
   230   1      10.560000000000009       35.20000000000001      40.480000000000011
   231   1      8.8000000000000114      33.440000000000012      44.000000000000007
   232   1      8.8000000000000114       35.20000000000001      45.760000000000005
   233   1      10.560000000000009      33.440000000000012      45.760000000000005
   234   1      10.560000000000009       35.20000000000001      44.000000000000007
   235   1      8.8000000000000114      33.440000000000012       47.52000000000001
   236   1      8.8000000000000114       35.20000000000001      49.280000000000001
   237   1      10.560000000000009      33.440000000000012      49.280000000000001
   238   1      10.560000000000009       35.20000000000001       47.52000000000001
   239   1      8.8000000000000114      33.440000000000012      51.040000000000013
   240   1      8.8000000000000114       35.20000000000001      52.800000000000004
   241   1      10.560000000000009      33.440000000000012      52.800000000000004
   242   1      10.560000000000009       35.20000000000001      51.040000000000013
   243   1      8.8000000000000114      33.440000000000012      54.560000000000016
   244   1      8.8000000000000114       35.20000000000001      56.320000000000007
   245   1      10.560000000000009      33.440000000000012      56.320000000000007
   246   1      10.560000000000009       35.20000000000001      54.560000000000016
   247   1      8.8000000000000114       35.20000000000001      59.840000000000011
   248   1      10.560000000000009      33.440000000000012      59.840000000000011
   249   1      10.560000000000009       35.20000000000001      58.080000000000013
   250   1      10.560000000000009       35.20000000000001      61.600000000000009
   251   1      10.560000000000009      36.960000000000008      31.680000000000007
   252   1      8.8000000000000114      38.720000000000006       35.20000000000001
   253   1      10.560000000000009      36.960000000000008       35.20000000000001
   254   1      10.560000000000009      38.720000000000006      33.440000000000012
   255   1      8.8000000000000114      36.960000000000008      36.960000000000008
   256   1      8.8000000000000114      38.720000000000006      38.720000000000006
   257   1      10.560000000000009      36.960000000000008      38.720000000000006
   258   1      10.560000000000009      38.720000000000006      36.960000000000008
   259   1      8.8000000000000114      36.960000000000008      40.480000000000011
   260   1      8.8000000000000114      38.720000000000006      42.240000000000009
   261   1      10.560000000000009      36.960000000000008      42.240000000000009
   262   1      10.560000000000009      38.720000000000006      40.480000000000011
   263   1      8.8000000000000114      36.960000000000008      44.000000000000007
   264   1      8.8000000000000114      38.720000000000006      45.760000000000005
   265   1      10.560000000000009      36.960000000000008      45.760000000000005
   266   1      10.560000000000009      38.720000000000006      44.000000000000007
   267   1      8.8000000000000114      36.960000000000008       47.52000000000001
   268   1      8.8000000000000114      38.720000000000006      49.280000000000001
   269   1      10.560000000000009      36.960000000000008      49.280000000000001
   270   1      10.560000000000009      38.720000000000006       47.52000000000001
   271   1      8.8000000000000114      36.960000000000008      51.040000000000013
   272   1      8.8000000000000114      38.720000000000006      52.800000000000004
   273   1      10.560000000000009      36.960000000000008      52.800000000000004
   274   1      10.560000000000009      38.720000000000006      51.040000000000013
   275   1      8.8000000000000114      36.960000000000008      54.560000000000016
   276   1      8.8000000000000114      38.720000000000006      56.320000000000007
   277   1      10.560000000000009      36.960000000000008      56.320000000000007
   278   1      10.560000000000009      38.720000000000006      54.560000000000016
   279   1      8.8000000000000114      36.960000000000008      58.080000000000013
   280   1      8.8000000000000114      38.720000000000006      59.840000000000011
   281   1      10.560000000000009      36.960000000000008      59.840000000000011
   282   1      10.560000000000009      38.720000000000006      58.080000000000013
   283   1      10.560000000000009      36.960000000000008      63.360000000000014
   284   1      10.560000000000009      38.720000000000006      61.600000000000009
   285   1      10.560000000000009      40.480000000000011      31.680000000000007
   286   1      10.560000000000009      42.240000000000009      29.920000000000005
   287   1      8.8000000000000114      40.480000000000011      33.440000000000012
   288   1      8.8000000000000114      42.240000000000009       35.20000000000001
   289   1      10.560000000000009      40.480000000000011       35.20000000000001
   290   1      10.560000000000009      42.240000000000009      33.440000000000012
   291   1      8.8000000000000114      40.480000000000011      36.960000000000008
   292   1      8.8000000000000114      42.240000000000009      38.720000000000006
   293   1      10.560000000000009      40.480000000000011      38.720000000000006
   294   1      10.560000000000009      42.240000000000009      36.960000000000008
   295   1      8.8000000000000114      40.480000000000011      40.480000000000011
   296   1      8.8000000000000114      42.240000000000009      42.240000000000009
   297   1      10.560000000000009      40.480000000000011      42.240000000000009
   298   1      10.560000000000009      42.240000000000009      40.480000000000011
   299   1      8.8000000000000114      40.480000000000011      44.000000000000007
   300   1      8.8000000000000114      42.240000000000009      45.760000000000005
   301   1      10.560000000000009      40.480000000000011      45.760000000000005
   302   1      10.560000000000009      42.240000000000009      44.000000000000007
   303   1      8.8000000000000114      40.480000000000011       47.52000000000001
   304   1      8.8000000000000114      42.240000000000009      49.280000000000001
   305   1      10.560000000000009      40.480000000000011      49.280000000000001
   306   1      10.560000000000009      42.240000000000009       47.52000000000001
   307   1      8.8000000000000114      40.480000000000011      51.040000000000013
   308   1      8.8000000000000114      42.240000000000009      52.800000000000004
   309   1      10.560000000000009      40.480000000000011      52.800000000000004
   310   1      10.560000000000009      42.240000000000009      51.040000000000013
   311   1      8.8000000000000114      40.480000000000011      54.560000000000016
   312   1      8.8000000000000114      42.240000000000009      56.320000000000007
   313   1      10.560000000000009      40.480000000000011      56.320000000000007
   314   1      10.560000000000009      42.240000000000009      54.560000000000016
   315   1      8.8000000000000114      40.480000000000011      58.080000000000013
   316   1      8.8000000000000114      42.240000000000009      59.840000000000011
   317   1      10.560000000000009      40.480000000000011      59.840000000000011
   318   1      10.560000000000009      42.240000000000009      58.080000000000013
   319   1      8.8000000000000114      40.480000000000011      61.600000000000009
   320   1      10.560000000000009      40.480000000000011      63.360000000000014
   321   1      10.560000000000009      42.240000000000009      61.600000000000009
   322   1      10.560000000000009      42.240000000000009      65.120000000000005
   323   1      8.8000000000000114      45.760000000000005      31.680000000000007
   324   1      10.560000000000009      44.000000000000007      31.680000000000007
   325   1      10.560000000000009      45.760000000000005      29.920000000000005
   326   1      8.8000000000000114      44.000000000000007      33.440000000000012
   327   1      8.8000000000000114      45.760000000000005       35.20000000000001
   328   1      10.560000000000009      44.000000000000007       35.20000000000001
   329   1      10.560000000000009      45.760000000000005      33.440000000000012
   330   1      8.8000000000000114      44.000000000000007      36.960000000000008
   331   1      8.8000000000000114      45.760000000000005      38.720000000000006
   332   1      10.560000000000009      44.000000000000007      38.720000000000006
   333   1      10.560000000000009      45.760000000000005      36.960000000000008
   334   1      8.8000000000000114      44.000000000000007      40.480000000000011
   335   1      8.8000000000000114      45.760000000000005      42.240000000000009
   336   1      10.560000000000009      44.000000000000007      42.240000000000009
   337   1      10.560000000000009      45.760000000000005      40.480000000000011
   338   1      8.8000000000000114      44.000000000000007      44.000000000000007
   339   1      8.8000000000000114      45.760000000000005      45.760000000000005
   340   1      10.560000000000009      44.000000000000007      45.760000000000005
   341   1      10.560000000000009      45.760000000000005      44.000000000000007
   342   1      8.8000000000000114      44.000000000000007       47.52000000000001
   343   1      8.8000000000000114      45.760000000000005      49.280000000000001
   344   1      10.560000000000009      44.000000000000007      49.280000000000001
   345   1      10.560000000000009      45.760000000000005       47.52000000000001
   346   1      8.8000000000000114      44.000000000000007      51.040000000000013
   347   1      8.8000000000000114      45.760000000000005      52.800000000000004
   348   1      10.560000000000009      44.000000000000007      52.800000000000004
   349   1      10.560000000000009      45.760000000000005      51.040000000000013
   350   1      8.8000000000000114      44.000000000000007      54.560000000000016
   351   1      8.8000000000000114      45.760000000000005      56.320000000000007
   352   1      10.560000000000009      44.000000000000007      56.320000000000007
   353   1      10.560000000000009      45.760000000000005      54.560000000000016
   354   1      8.8000000000000114      44.000000000000007      58.080000000000013
   355   1      8.8000000000000114      45.760000000000005      59.840000000000011
   356   1      10.560000000000009      44.000000000000007      59.840000000000011
   357   1      10.560000000000009      45.760000000000005      58.080000000000013
   358   1      8.8000000000000114      44.000000000000007      61.600000000000009