LAMMPS data file via write_data, version 30 Nov 2020, timestep = 0

29911 atoms
5 atom types

0 109 xlo xhi
0 109 ylo yhi
0 109 zlo zhi

Masses

1 58.69
2 58.933
3 51.96
4 55.847
5 54.94

Atoms # atomic

1 4 1.7974999999999997 52.12750000000001 53.925000000000004 0 0 0
2 3 1.7974999999999997 53.925000000000004 52.12750000000001 0 0 0
3 2 0 53.925000000000004 53.925000000000004 0 0 0
6 5 5.392500000000005 44.93750000000001 53.925000000000004 0 0 0
7 4 3.5949999999999993 48.53250000000001 52.12750000000001 0 0 0
8 1 5.392500000000005 46.73500000000001 52.12750000000001 0 0 0
9 2 5.392500000000005 48.53250000000001 50.330000000000005 0 0 0
12 2 5.392500000000005 48.53250000000001 53.925000000000004 0 0 0
14 3 3.5949999999999993 52.12750000000001 48.53250000000001 0 0 0
15 3 5.392500000000005 50.330000000000005 48.53250000000001 0 0 0
16 2 5.392500000000005 52.12750000000001 46.73500000000001 0 0 0
17 5 3.5949999999999993 50.330000000000005 50.330000000000005 0 0 0
18 5 3.5949999999999993 52.12750000000001 52.12750000000001 0 0 0
19 3 5.392500000000005 50.330000000000005 52.12750000000001 0 0 0
20 5 5.392500000000005 52.12750000000001 50.330000000000005 0 0 0
21 1 3.5949999999999993 50.330000000000005 53.925000000000004 0 0 0
24 1 5.392500000000005 52.12750000000001 53.925000000000004 0 0 0
30 3 5.392500000000005 53.925000000000004 44.93750000000001 0 0 0
32 3 5.392500000000005 53.925000000000004 48.53250000000001 0 0 0
34 2 3.5949999999999993 53.925000000000004 50.330000000000005 0 0 0
36 5 5.392500000000005 53.925000000000004 52.12750000000001 0 0 0
38 5 3.5949999999999993 53.925000000000004 53.925000000000004 0 0 0
63 5 8.987500000000006 41.34250000000001 53.925000000000004 0 0 0
64 5 8.987500000000006 44.93750000000001 46.73500000000001 0 0 0
65 1 7.190000000000006 44.93750000000001 52.12750000000001 0 0 0
66 5 8.987500000000006 43.14 52.12750000000001 0 0 0
67 2 8.987500000000006 44.93750000000001 50.330000000000005 0 0 0
68 1 7.190000000000006 43.14 53.925000000000004 0 0 0
71 1 8.987500000000006 44.93750000000001 53.925000000000004 0 0 0
74 4 8.987500000000006 46.73500000000001 44.93750000000001 0 0 0
75 5 7.190000000000006 48.53250000000001 48.53250000000001 0 0 0
76 3 8.987500000000006 46.73500000000001 48.53250000000001 0 0 0
77 5 8.987500000000006 48.53250000000001 46.73500000000001 0 0 0
78 5 7.190000000000006 46.73500000000001 50.330000000000005 0 0 0
79 1 7.190000000000006 48.53250000000001 52.12750000000001 0 0 0
80 4 8.987500000000006 46.73500000000001 52.12750000000001 0 0 0
81 5 8.987500000000006 48.53250000000001 50.330000000000005 0 0 0
82 3 7.190000000000006 46.73500000000001 53.925000000000004 0 0 0
85 5 8.987500000000006 48.53250000000001 53.925000000000004 0 0 0
92 1 7.190000000000006 52.12750000000001 44.93750000000001 0 0 0
93 5 8.987500000000006 50.330000000000005 44.93750000000001 0 0 0
94 5 8.987500000000006 52.12750000000001 43.14 0 0 0
95 3 7.190000000000006 50.330000000000005 46.73500000000001 0 0 0
96 5 7.190000000000006 52.12750000000001 48.53250000000001 0 0 0
97 1 8.987500000000006 50.330000000000005 48.53250000000001 0 0 0
98 3 8.987500000000006 52.12750000000001 46.73500000000001 0 0 0
99 3 7.190000000000006 50.330000000000005 50.330000000000005 0 0 0
100 4 7.190000000000006 52.12750000000001 52.12750000000001 0 0 0
101 1 8.987500000000006 50.330000000000005 52.12750000000001 0 0 0
102 3 8.987500000000006 52.12750000000001 50.330000000000005 0 0 0
103 4 7.190000000000006 50.330000000000005 53.925000000000004 0 0 0
106 5 8.987500000000006 52.12750000000001 53.925000000000004 0 0 0
116 4 8.987500000000006 53.925000000000004 41.34250000000001 0 0 0
117 2 7.190000000000006 53.925000000000004 43.14 0 0 0
119 5 8.987500000000006 53.925000000000004 44.93750000000001 0 0 0
121 5 7.190000000000006 53.925000000000004 46.73500000000001 0 0 0
123 4 8.987500000000006 53.925000000000004 48.53250000000001 0 0 0
125 5 7.190000000000006 53.925000000000004 50.330000000000005 0 0 0
127 4 8.987500000000006 53.925000000000004 52.12750000000001 0 0 0
129 3 7.190000000000006 53.925000000000004 53.925000000000004 0 0 0
184 3 12.582500000000005 37.74750000000001 50.330000000000005 0 0 0
185 4 12.582500000000005 37.74750000000001 53.925000000000004 0 0 0
187 2 10.785000000000005 41.34250000000001 48.53250000000001 0 0 0
188 5 12.582500000000005 39.545 48.53250000000001 0 0 0
189 1 12.582500000000005 41.34250000000001 46.73500000000001 0 0 0
190 5 10.785000000000005 41.34250000000001 52.12750000000001 0 0 0
191 5 12.582500000000005 39.545 52.12750000000001 0 0 0
192 1 12.582500000000005 41.34250000000001 50.330000000000005 0 0 0
193 4 10.785000000000005 39.545 53.925000000000004 0 0 0
196 4 12.582500000000005 41.34250000000001 53.925000000000004 0 0 0
201 2 10.785000000000005 44.93750000000001 44.93750000000001 0 0 0
202 2 12.582500000000005 43.14 44.93750000000001 0 0 0
203 5 12.582500000000005 44.93750000000001 43.14 0 0 0
204 1 10.785000000000005 43.14 46.73500000000001 0 0 0
205 4 10.785000000000005 44.93750000000001 48.53250000000001 0 0 0
206 1 12.582500000000005 43.14 48.53250000000001 0 0 0
207 1 12.582500000000005 44.93750000000001 46.73500000000001 0 0 0
208 2 10.785000000000005 43.14 50.330000000000005 0 0 0
209 5 10.785000000000005 44.93750000000001 52.12750000000001 0 0 0
210 1 12.582500000000005 43.14 52.12750000000001 0 0 0
211 1 12.582500000000005 44.93750000000001 50.330000000000005 0 0 0
212 3 10.785000000000005 43.14 53.925000000000004 0 0 0
215 4 12.582500000000005 44.93750000000001 53.925000000000004 0 0 0
225 4 10.785000000000005 48.53250000000001 41.34250000000001 0 0 0
226 2 12.582500000000005 46.73500000000001 41.34250000000001 0 0 0
227 2 12.582500000000005 48.53250000000001 39.545 0 0 0
228 2 10.785000000000005 46.73500000000001 43.14 0 0 0
229 2 10.785000000000005 48.53250000000001 44.93750000000001 0 0 0
230 3 12.582500000000005 46.73500000000001 44.93750000000001 0 0 0
231 4 12.582500000000005 48.53250000000001 43.14 0 0 0
232 1 10.785000000000005 46.73500000000001 46.73500000000001 0 0 0
233 4 10.785000000000005 48.53250000000001 48.53250000000001 0 0 0
234 5 12.582500000000005 46.73500000000001 48.53250000000001 0 0 0
235 1 12.582500000000005 48.53250000000001 46.73500000000001 0 0 0
236 3 10.785000000000005 46.73500000000001 50.330000000000005 0 0 0
237 3 10.785000000000005 48.53250000000001 52.12750000000001 0 0 0
238 5 12.582500000000005 46.73500000000001 52.12750000000001 0 0 0
239 4 12.582500000000005 48.53250000000001 50.330000000000005 0 0 0
240 4 10.785000000000005 46.73500000000001 53.925000000000004 0 0 0
243 5 12.582500000000005 48.53250000000001 53.925000000000004 0 0 0
257 2 12.582500000000005 50.330000000000005 37.74750000000001 0 0 0
258 1 10.785000000000005 52.12750000000001 41.34250000000001 0 0 0
259 5 12.582500000000005 50.330000000000005 41.34250000000001 0 0 0
260 5 12.582500000000005 52.12750000000001 39.545 0 0 0
261 1 10.785000000000005 50.330000000000005 43.14 0 0 0
262 3 10.785000000000005 52.12750000000001 44.93750000000001 0 0 0
263 5 12.582500000000005 50.330000000000005 44.93750000000001 0 0 0
264 2 12.582500000000005 52.12750000000001 43.14 0 0 0
265 3 10.785000000000005 50.330000000000005 46.73500000000001 0 0 0
266 2 10.785000000000005 52.12750000000001 48.53250000000001 0 0 0
267 4 12.582500000000005 50.330000000000005 48.53250000000001 0 0 0
268 2 12.582500000000005 52.12750000000001 46.73500000000001 0 0 0
269 2 10.785000000000005 50.330000000000005 50.330000000000005 0 0 0
270 5 10.785000000000005 52.12750000000001 52.12750000000001 0 0 0
271 5 12.582500000000005 50.330000000000005 52.12750000000001 0 0 0
272 5 12.582500000000005 52.12750000000001 50.330000000000005 0 0 0
273 1 10.785000000000005 50.330000000000005 53.925000000000004 0 0 0
276 1 12.582500000000005 52.12750000000001 53.925000000000004 0 0 0
291 4 12.582500000000005 53.925000000000004 37.74750000000001 0 0 0
292 4 10.785000000000005 53.925000000000004 39.545 0 0 0
294 5 12.582500000000005 53.925000000000004 41.34250000000001 0 0 0
296 5 10.785000000000005 53.925000000000004 43.14 0 0 0
298 5 12.582500000000005 53.925000000000004 44.93750000000001 0 0 0
300 5 10.785000000000005 53.925000000000004 46.73500000000001 0 0 0
302 3 12.582500000000005 53.925000000000004 48.53250000000001 0 0 0
304 2 10.785000000000005 53.925000000000004 50.330000000000005 0 0 0
306 5 12.582500000000005 53.925000000000004 52.12750000000001 0 0 0
308 4 10.785000000000005 53.925000000000004 53.925000000000004 0 0 0
417 3 16.177500000000002 30.557500000000008 53.925000000000004 0 0 0
418 5 14.380000000000003 34.1525 52.12750000000001 0 0 0
419 1 16.177500000000002 32.355000000000004 52.12750000000001 0 0 0
420 4 16.177500000000002 34.1525 50.330000000000005 0 0 0
423 4 16.177500000000002 34.1525 53.925000000000004 0 0 0
425 5 16.177500000000002 37.74750000000001 43.14 0 0 0
426 5 14.380000000000003 37.74750000000001 48.53250000000001 0 0 0
427 4 16.177500000000002 35.95 48.53250000000001 0 0 0
428 4 16.177500000000002 37.74750000000001 46.73500000000001 0 0 0
429 3 14.380000000000003 35.95 50.330000000000005 0 0 0
430 2 14.380000000000003 37.74750000000001 52.12750000000001 0 0 0
431 2 16.177500000000002 35.95 52.12750000000001 0 0 0
432 3 16.177500000000002 37.74750000000001 50.330000000000005 0 0 0
433 2 14.380000000000003 35.95 53.925000000000004 0 0 0
436 5 16.177500000000002 37.74750000000001 53.925000000000004 0 0 0
443 5 14.380000000000003 41.34250000000001 41.34250000000001 0 0 0
444 4 16.177500000000002 39.545 41.34250000000001 0 0 0
445 4 16.177500000000002 41.34250000000001 39.545 0 0 0
446 1 14.380000000000003 41.34250000000001 44.93750000000001 0 0 0
447 3 16.177500000000002 39.545 44.93750000000001 0 0 0
448 3 16.177500000000002 41.34250000000001 43.14 0 0 0
449 4 14.380000000000003 39.545 46.73500000000001 0 0 0
450 5 14.380000000000003 41.34250000000001 48.53250000000001 0 0 0
451 4 16.177500000000002 39.545 48.53250000000001 0 0 0
452 5 16.177500000000002 41.34250000000001 46.73500000000001 0 0 0
453 4 14.380000000000003 39.545 50.330000000000005 0 0 0
454 2 14.380000000000003 41.34250000000001 52.12750000000001 0 0 0
455 4 16.177500000000002 39.545 52.12750000000001 0 0 0
456 3 16.177500000000002 41.34250000000001 50.330000000000005 0 0 0
457 5 14.380000000000003 39.545 53.925000000000004 0 0 0
460 4 16.177500000000002 41.34250000000001 53.925000000000004 0 0 0
473 3 16.177500000000002 43.14 37.74750000000001 0 0 0
474 3 14.380000000000003 44.93750000000001 41.34250000000001 0 0 0
475 2 16.177500000000002 43.14 41.34250000000001 0 0 0
476 5 16.177500000000002 44.93750000000001 39.545 0 0 0
477 3 14.380000000000003 43.14 43.14 0 0 0
478 4 14.380000000000003 44.93750000000001 44.93750000000001 0 0 0
479 5 16.177500000000002 43.14 44.93750000000001 0 0 0
480 2 16.177500000000002 44.93750000000001 43.14 0 0 0
481 3 14.380000000000003 43.14 46.73500000000001 0 0 0
482 3 14.380000000000003 44.93750000000001 48.53250000000001 0 0 0
483 3 16.177500000000002 43.14 48.53250000000001 0 0 0
484 3 16.177500000000002 44.93750000000001 46.73500000000001 0 0 0
485 1 14.380000000000003 43.14 50.330000000000005 0 0 0
486 2 14.380000000000003 44.93750000000001 52.12750000000001 0 0 0
487 3 16.177500000000002 43.14 52.12750000000001 0 0 0
488 3 16.177500000000002 44.93750000000001 50.330000000000005 0 0 0
489 5 14.380000000000003 43.14 53.925000000000004 0 0 0
492 3 16.177500000000002 44.93750000000001 53.925000000000004 0 0 0
507 4 14.380000000000003 48.53250000000001 37.74750000000001 0 0 0
508 2 16.177500000000002 46.73500000000001 37.74750000000001 0 0 0
509 3 16.177500000000002 48.53250000000001 35.95 0 0 0
510 1 14.380000000000003 46.73500000000001 39.545 0 0 0
511 4 14.380000000000003 48.53250000000001 41.34250000000001 0 0 0
512 2 16.177500000000002 46.73500000000001 41.34250000000001 0 0 0
513 3 16.177500000000002 48.53250000000001 39.545 0 0 0
514 5 14.380000000000003 46.73500000000001 43.14 0 0 0
515 2 14.380000000000003 48.53250000000001 44.93750000000001 0 0 0
516 2 16.177500000000002 46.73500000000001 44.93750000000001 0 0 0
517 1 16.177500000000002 48.53250000000001 43.14 0 0 0
518 5 14.380000000000003 46.73500000000001 46.73500000000001 0 0 0
519 1 14.380000000000003 48.53250000000001 48.53250000000001 0 0 0
520 2 16.177500000000002 46.73500000000001 48.53250000000001 0 0 0
521 4 16.177500000000002 48.53250000000001 46.73500000000001 0 0 0
522 3 14.380000000000003 46.73500000000001 50.330000000000005 0 0 0
523 5 14.380000000000003 48.53250000000001 52.12750000000001 0 0 0
524 3 16.177500000000002 46.73500000000001 52.12750000000001 0 0 0
525 5 16.177500000000002 48.53250000000001 50.330000000000005 0 0 0
526 4 14.380000000000003 46.73500000000001 53.925000000000004 0 0 0
529 3 16.177500000000002 48.53250000000001 53.925000000000004 0 0 0
547 4 14.380000000000003 52.12750000000001 34.1525 0 0 0
548 2 16.177500000000002 50.330000000000005 34.1525 0 0 0
549 5 16.177500000000002 52.12750000000001 32.355000000000004 0 0 0
550 2 14.380000000000003 50.330000000000005 35.95 0 0 0
551 3 14.380000000000003 52.12750000000001 37.74750000000001 0 0 0
552 2 16.177500000000002 50.330000000000005 37.74750000000001 0 0 0
553 3 16.177500000000002 52.12750000000001 35.95 0 0 0
554 4 14.380000000000003 50.330000000000005 39.545 0 0 0
555 3 14.380000000000003 52.12750000000001 41.34250000000001 0 0 0
556 3 16.177500000000002 50.330000000000005 41.34250000000001 0 0 0
557 3 16.177500000000002 52.12750000000001 39.545 0 0 0
558 4 14.380000000000003 50.330000000000005 43.14 0 0 0
559 5 14.380000000000003 52.12750000000001 44.93750000000001 0 0 0
560 1 16.177500000000002 50.330000000000005 44.93750000000001 0 0 0
561 1 16.177500000000002 52.12750000000001 43.14 0 0 0
562 5 14.380000000000003 50.330000000000005 46.73500000000001 0 0 0
563 4 14.380000000000003 52.12750000000001 48.53250000000001 0 0 0
564 2 16.177500000000002 50.330000000000005 48.53250000000001 0 0 0
565 5 16.177500000000002 52.12750000000001 46.73500000000001 0 0 0
566 4 14.380000000000003 50.330000000000005 50.330000000000005 0 0 0
567 1 14.380000000000003 52.12750000000001 52.12750000000001 0 0 0
568 5 16.177500000000002 50.330000000000005 52.12750000000001 0 0 0
569 2 16.177500000000002 52.12750000000001 50.330000000000005 0 0 0
570 3 14.380000000000003 50.330000000000005 53.925000000000004 0 0 0
573 2 16.177500000000002 52.12750000000001 53.925000000000004 0 0 0
595 5 16.177500000000002 53.925000000000004 30.557500000000008 0 0 0
597 2 16.177500000000002 53.925000000000004 34.1525 0 0 0
599 1 14.380000000000003 53.925000000000004 35.95 0 0 0
601 1 16.177500000000002 53.925000000000004 37.74750000000001 0 0 0
603 5 14.380000000000003 53.925000000000004 39.545 0 0 0
605 4 16.177500000000002 53.925000000000004 41.34250000000001 0 0 0
607 3 14.380000000000003 53.925000000000004 43.14 0 0 0
609 3 16.177500000000002 53.925000000000004 44.93750000000001 0 0 0
611 2 14.380000000000003 53.925000000000004 46.73500000000001 0 0 0
613 2 16.177500000000002 53.925000000000004 48.53250000000001 0 0 0
615 2 14.380000000000003 53.925000000000004 50.330000000000005 0 0 0
617 5 16.177500000000002 53.925000000000004 52.12750000000001 0 0 0
619 2 14.380000000000003 53.925000000000004 53.925000000000004 0 0 0
798 5 19.7725 26.962500000000002 53.925000000000004 0 0 0
799 3 19.7725 30.557500000000008 46.73500000000001 0 0 0
800 5 17.975 30.557500000000008 52.12750000000001 0 0 0
801 1 19.7725 28.760000000000005 52.12750000000001 0 0 0
802 5 19.7725 30.557500000000008 50.330000000000005 0 0 0
803 4 17.975 28.760000000000005 53.925000000000004 0 0 0
806 5 19.7725 30.557500000000008 53.925000000000004 0 0 0
809 5 17.975 34.1525 44.93750000000001 0 0 0
810 2 19.7725 32.355000000000004 44.93750000000001 0 0 0
811 2 19.7725 34.1525 43.14 0 0 0
812 4 17.975 34.1525 48.53250000000001 0 0 0
813 5 19.7725 32.355000000000004 48.53250000000001 0 0 0
814 5 19.7725 34.1525 46.73500000000001 0 0 0
815 3 17.975 32.355000000000004 50.330000000000005 0 0 0
816 3 17.975 34.1525 52.12750000000001 0 0 0
817 1 19.7725 32.355000000000004 52.12750000000001 0 0 0
818 4 19.7725 34.1525 50.330000000000005 0 0 0
819 4 17.975 32.355000000000004 53.925000000000004 0 0 0
822 4 19.7725 34.1525 53.925000000000004 0 0 0
831 5 17.975 37.74750000000001 41.34250000000001 0 0 0
832 5 19.7725 35.95 41.34250000000001 0 0 0
833 2 19.7725 37.74750000000001 39.545 0 0 0
834 4 17.975 35.95 43.14 0 0 0
835 1 17.975 37.74750000000001 44.93750000000001 0 0 0
836 2 19.7725 35.95 44.93750000000001 0 0 0
837 4 19.7725 37.74750000000001 43.14 0 0 0
838 2 17.975 35.95 46.73500000000001 0 0 0
839 5 17.975 37.74750000000001 48.53250000000001 0 0 0
840 4 19.7725 35.95 48.53250000000001 0 0 0
841 1 19.7725 37.74750000000001 46.73500000000001 0 0 0
842 3 17.975 35.95 50.330000000000005 0 0 0
843 5 17.975 37.74750000000001 52.12750000000001 0 0 0
844 4 19.7725 35.95 52.12750000000001 0 0 0
845 4 19.7725 37.74750000000001 50.330000000000005 0 0 0
846 1 17.975 35.95 53.925000000000004 0 0 0
849 1 19.7725 37.74750000000001 53.925000000000004 0 0 0
863 1 17.975 41.34250000000001 37.74750000000001 0 0 0
864 4 19.7725 39.545 37.74750000000001 0 0 0
865 3 19.7725 41.34250000000001 35.95 0 0 0
866 1 17.975 39.545 39.545 0 0 0
867 2 17.975 41.34250000000001 41.34250000000001 0 0 0
868 5 19.7725 39.545 41.34250000000001 0 0 0
869 1 19.7725 41.34250000000001 39.545 0 0 0
870 4 17.975 39.545 43.14 0 0 0
871 5 17.975 41.34250000000001 44.93750000000001 0 0 0
872 1 19.7725 39.545 44.93750000000001 0 0 0
873 4 19.7725 41.34250000000001 43.14 0 0 0
874 2 17.975 39.545 46.73500000000001 0 0 0
875 2 17.975 41.34250000000001 48.53250000000001 0 0 0
876 3 19.7725 39.545 48.53250000000001 0 0 0
877 5 19.7725 41.34250000000001 46.73500000000001 0 0 0
878 2 17.975 39.545 50.330000000000005 0 0 0
879 5 17.975 41.34250000000001 52.12750000000001 0 0 0
880 1 19.7725 39.545 52.12750000000001 0 0 0
881 2 19.7725 41.34250000000001 50.330000000000005 0 0 0
882 5 17.975 39.545 53.925000000000004 0 0 0
885 2 19.7725 41.34250000000001 53.925000000000004 0 0 0
903 5 17.975 44.93750000000001 34.1525 0 0 0
904 4 19.7725 43.14 34.1525 0 0 0
905 1 19.7725 44.93750000000001 32.355000000000004 0 0 0
906 1 17.975 43.14 35.95 0 0 0
907 4 17.975 44.93750000000001 37.74750000000001 0 0 0
908 2 19.7725 43.14 37.74750000000001 0 0 0
909 5 19.7725 44.93750000000001 35.95 0 0 0
910 3 17.975 43.14 39.545 0 0 0
911 4 17.975 44.93750000000001 41.34250000000001 0 0 0
912 3 19.7725 43.14 41.34250000000001 0 0 0
913 2 19.7725 44.93750000000001 39.545 0 0 0
914 3 17.975 43.14 43.14 0 0 0
915 2 17.975 44.93750000000001 44.93750000000001 0 0 0
916 5 19.7725 43.14 44.93750000000001 0 0 0
917 4 19.7725 44.93750000000001 43.14 0 0 0
918 5 17.975 43.14 46.73500000000001 0 0 0
919 1 17.975 44.93750000000001 48.53250000000001 0 0 0
920 2 19.7725 43.14 48.53250000000001 0 0 0
921 1 19.7725 44.93750000000001 46.73500000000001 0 0 0
922 2 17.975 43.14 50.330000000000005 0 0 0
923 1 17.975 44.93750000000001 52.12750000000001 0 0 0
924 2 19.7725 43.14 52.12750000000001 0 0 0
925 4 19.7725 44.93750000000001 50.330000000000005 0 0 0
926 3 17.975 43.14 53.925000000000004 0 0 0
929 4 19.7725 44.93750000000001 53.925000000000004 0 0 0
951 5 19.7725 46.73500000000001 30.557500000000008 0 0 0
952 5 17.975 48.53250000000001 34.1525 0 0 0
953 4 19.7725 46.73500000000001 34.1525 0 0 0
954 1 19.7725 48.53250000000001 32.355000000000004 0 0 0
955 4 17.975 46.73500000000001 35.95 0 0 0
956 3 17.975 48.53250000000001 37.74750000000001 0 0 0
957 3 19.7725 46.73500000000001 37.74750000000001 0 0 0
958 4 19.7725 48.53250000000001 35.95 0 0 0
959 3 17.975 46.73500000000001 39.545 0 0 0
960 4 17.975 48.53250000000001 41.34250000000001 0 0 0
961 5 19.7725 46.73500000000001 41.34250000000001 0 0 0
962 1 19.7725 48.53250000000001 39.545 0 0 0
963 5 17.975 46.73500000000001 43.14 0 0 0
964 4 17.975 48.53250000000001 44.93750000000001 0 0 0
965 2 19.7725 46.73500000000001 44.93750000000001 0 0 0
966 4 19.7725 48.53250000000001 43.14 0 0 0
967 1 17.975 46.73500000000001 46.73500000000001 0 0 0
968 3 17.975 48.53250000000001 48.53250000000001 0 0 0
969 3 19.7725 46.73500000000001 48.53250000000001 0 0 0
970 5 19.7725 48.53250000000001 46.73500000000001 0 0 0
971 5 17.975 46.73500000000001 50.330000000000005 0 0 0
972 5 17.975 48.53250000000001 52.12750000000001 0 0 0
973 1 19.7725 46.73500000000001 52.12750000000001 0 0 0
974 3 19.7725 48.53250000000001 50.330000000000005 0 0 0
975 4 17.975 46.73500000000001 53.925000000000004 0 0 0
978 5 19.7725 48.53250000000001 53.925000000000004 0 0 0
1001 2 17.975 52.12750000000001 30.557500000000008 0 0 0
1002 2 19.7725 50.330000000000005 30.557500000000008 0 0 0
1003 1 19.7725 52.12750000000001 28.760000000000005 0 0 0
1004 4 17.975 50.330000000000005 32.355000000000004 0 0 0
1005 1 17.975 52.12750000000001 34.1525 0 0 0
1006 2 19.7725 50.330000000000005 34.1525 0 0 0
1007 5 19.7725 52.12750000000001 32.355000000000004 0 0 0
1008 3 17.975 50.330000000000005 35.95 0 0 0
1009 1 17.975 52.12750000000001 37.74750000000001 0 0 0
1010 3 19.7725 50.330000000000005 37.74750000000001 0 0 0
1011 3 19.7725 52.12750000000001 35.95 0 0 0
1012 2 17.975 50.330000000000005 39.545 0 0 0
1013 1 17.975 52.12750000000001 41.34250000000001 0 0 0
1014 2 19.7725 50.330000000000005 41.34250000000001 0 0 0
1015 1 19.7725 52.12750000000001 39.545 0 0 0
1016 4 17.975 50.330000000000005 43.14 0 0 0
1017 4 17.975 52.12750000000001 44.93750000000001 0 0 0
1018 1 19.7725 50.330000000000005 44.93750000000001 0 0 0
1019 4 19.7725 52.12750000000001 43.14 0 0 0
1020 2 17.975 50.330000000000005 46.73500000000001 0 0 0
1021 2 17.975 52.12750000000001 48.53250000000001 0 0 0
1022 5 19.7725 50.330000000000005 48.53250000000001 0 0 0
1023 3 19.7725 52.12750000000001 46.73500000000001 0 0 0
1024 3 17.975 50.330000000000005 50.330000000000005 0 0 0
1025 1 17.975 52.12750000000001 52.12750000000001 0 0 0
1026 1 19.7725 50.330000000000005 52.12750000000001 0 0 0
1027 2 19.7725 52.12750000000001 50.330000000000005 0 0 0
1028 4 17.975 50.330000000000005 53.925000000000004 0 0 0
1031 4 19.7725 52.12750000000001 53.925000000000004 0 0 0
1057 2 19.7725 53.925000000000004 26.962500000000002 0 0 0
1058 1 17.975 53.925000000000004 28.760000000000005 0 0 0
1060 2 19.7725 53.925000000000004 30.557500000000008 0 0 0
1062 1 17.975 53.925000000000004 32.355000000000004 0 0 0
1064 1 19.7725 53.925000000000004 34.1525 0 0 0
1066 3 17.975 53.925000000000004 35.95 0 0 0
1068 1 19.7725 53.925000000000004 37.74750000000001 0 0 0
1070 3 17.975 53.925000000000004 39.545 0 0 0
1072 5 19.7725 53.925000000000004 41.34250000000001 0 0 0
1074 2 17.975 53.925000000000004 43.14 0 0 0
1076 3 19.7725 53.925000000000004 44.93750000000001 0 0 0
1078 4 17.975 53.925000000000004 46.73500000000001 0 0 0
1080 1 19.7725 53.925000000000004 48.53250000000001 0 0 0
1082 4 17.975 53.925000000000004 50.330000000000005 0 0 0
1084 3 19.7725 53.925000000000004 52.12750000000001 0 0 0
1086 5 17.975 53.925000000000004 53.925000000000004 0 0 0
1347 4 23.367500000000003 23.367500000000003 50.330000000000005 0 0 0
1348 4 23.367500000000003 23.367500000000003 53.925000000000004 0 0 0
1350 2 21.57 26.962500000000002 48.53250000000001 0 0 0
1351 5 23.367500000000003 25.165000000000003 48.53250000000001 0 0 0
1352 3 23.367500000000003 26.962500000000002 46.73500000000001 0 0 0
1353 4 21.57 26.962500000000002 52.12750000000001 0 0 0
1354 1 23.367500000000003 25.165000000000003 52.12750000000001 0 0 0
1355 5 23.367500000000003 26.962500000000002 50.330000000000005 0 0 0
1356 5 21.57 25.165000000000003 53.925000000000004 0 0 0
1359 4 23.367500000000003 26.962500000000002 53.925000000000004 0 0 0
1364 2 23.367500000000003 30.557500000000008 39.545 0 0 0
1365 5 21.57 30.557500000000008 44.93750000000001 0 0 0
1366 1 23.367500000000003 28.760000000000005 44.93750000000001 0 0 0
1367 4 23.367500000000003 30.557500000000008 43.14 0 0 0
1368 4 21.57 28.760000000000005 46.73500000000001 0 0 0
1369 1 21.57 30.557500000000008 48.53250000000001 0 0 0
1370 2 23.367500000000003 28.760000000000005 48.53250000000001 0 0 0
1371 1 23.367500000000003 30.557500000000008 46.73500000000001 0 0 0
1372 3 21.57 28.760000000000005 50.330000000000005 0 0 0
1373 4 21.57 30.557500000000008 52.12750000000001 0 0 0
1374 4 23.367500000000003 28.760000000000005 52.12750000000001 0 0 0
1375 2 23.367500000000003 30.557500000000008 50.330000000000005 0 0 0
1376 1 21.57 28.760000000000005 53.925000000000004 0 0 0
1379 5 23.367500000000003 30.557500000000008 53.925000000000004 0 0 0
1390 3 21.57 34.1525 37.74750000000001 0 0 0
1391 3 23.367500000000003 32.355000000000004 37.74750000000001 0 0 0
1392 3 23.367500000000003 34.1525 35.95 0 0 0
1393 3 21.57 34.1525 41.34250000000001 0 0 0
1394 4 23.367500000000003 32.355000000000004 41.34250000000001 0 0 0
1395 5 23.367500000000003 34.1525 39.545 0 0 0
1396 2 21.57 32.355000000000004 43.14 0 0 0
1397 1 21.57 34.1525 44.93750000000001 0 0 0
1398 3 23.367500000000003 32.355000000000004 44.93750000000001 0 0 0
1399 4 23.367500000000003 34.1525 43.14 0 0 0
1400 4 21.57 32.355000000000004 46.73500000000001 0 0 0
1401 4 21.57 34.1525 48.53250000000001 0 0 0
1402 2 23.367500000000003 32.355000000000004 48.53250000000001 0 0 0
1403 4 23.367500000000003 34.1525 46.73500000000001 0 0 0
1404 1 21.57 32.355000000000004 50.330000000000005 0 0 0
1405 3 21.57 34.1525 52.12750000000001 0 0 0
1406 2 23.367500000000003 32.355000000000004 52.12750000000001 0 0 0
1407 2 23.367500000000003 34.1525 50.330000000000005 0 0 0
1408 2 21.57 32.355000000000004 53.925000000000004 0 0 0
1411 2 23.367500000000003 34.1525 53.925000000000004 0 0 0
1428 4 21.57 37.74750000000001 34.1525 0 0 0
1429 4 23.367500000000003 35.95 34.1525 0 0 0
1430 5 23.367500000000003 37.74750000000001 32.355000000000004 0 0 0
1431 4 21.57 35.95 35.95 0 0 0
1432 4 21.57 37.74750000000001 37.74750000000001 0 0 0
1433 5 23.367500000000003 35.95 37.74750000000001 0 0 0
1434 3 23.367500000000003 37.74750000000001 35.95 0 0 0
1435 4 21.57 35.95 39.545 0 0 0
1436 1 21.57 37.74750000000001 41.34250000000001 0 0 0
1437 3 23.367500000000003 35.95 41.34250000000001 0 0 0
1438 4 23.367500000000003 37.74750000000001 39.545 0 0 0
1439 3 21.57 35.95 43.14 0 0 0
1440 3 21.57 37.74750000000001 44.93750000000001 0 0 0
1441 4 23.367500000000003 35.95 44.93750000000001 0 0 0
1442 2 23.367500000000003 37.74750000000001 43.14 0 0 0
1443 1 21.57 35.95 46.73500000000001 0 0 0
1444 3 21.57 37.74750000000001 48.53250000000001 0 0 0
1445 4 23.367500000000003 35.95 48.53250000000001 0 0 0
1446 1 23.367500000000003 37.74750000000001 46.73500000000001 0 0 0
1447 4 21.57 35.95 50.330000000000005 0 0 0
1448 1 21.57 37.74750000000001 52.12750000000001 0 0 0
1449 4 23.367500000000003 35.95 52.12750000000001 0 0 0
1450 1 23.367500000000003 37.74750000000001 50.330000000000005 0 0 0
1451 5 21.57 35.95 53.925000000000004 0 0 0
1454 2 23.367500000000003 37.74750000000001 53.925000000000004 0 0 0
1476 5 23.367500000000003 39.545 30.557500000000008 0 0 0
1477 5 21.57 41.34250000000001 34.1525 0 0 0
1478 2 23.367500000000003 39.545 34.1525 0 0 0
1479 2 23.367500000000003 41.34250000000001 32.355000000000004 0 0 0
1480 4 21.57 39.545 35.95 0 0 0
1481 1 21.57 41.34250000000001 37.74750000000001 0 0 0
1482 2 23.367500000000003 39.545 37.74750000000001 0 0 0
1483 1 23.367500000000003 41.34250000000001 35.95 0 0 0
1484 2 21.57 39.545 39.545 0 0 0
1485 5 21.57 41.34250000000001 41.34250000000001 0 0 0
1486 5 23.367500000000003 39.545 41.34250000000001 0 0 0
1487 3 23.367500000000003 41.34250000000001 39.545 0 0 0
1488 2 21.57 39.545 43.14 0 0 0
1489 5 21.57 41.34250000000001 44.93750000000001 0 0 0
1490 2 23.367500000000003 39.545 44.93750000000001 0 0 0
1491 3 23.367500000000003 41.34250000000001 43.14 0 0 0
1492 5 21.57 39.545 46.73500000000001 0 0 0
1493 3 21.57 41.34250000000001 48.53250000000001 0 0 0
1494 2 23.367500000000003 39.545 48.53250000000001 0 0 0
1495 5 23.367500000000003 41.34250000000001 46.73500000000001 0 0 0
1496 5 21.57 39.545 50.330000000000005 0 0 0
1497 2 21.57 41.34250000000001 52.12750000000001 0 0 0
1498 3 23.367500000000003 39.545 52.12750000000001 0 0 0
1499 3 23.367500000000003 41.34250000000001 50.330000000000005 0 0 0
1500 4 21.57 39.545 53.925000000000004 0 0 0
1503 1 23.367500000000003 41.34250000000001 53.925000000000004 0 0 0
1526 2 21.57 44.93750000000001 30.557500000000008 0 0 0
1527 5 23.367500000000003 43.14 30.557500000000008 0 0 0
1528 2 23.367500000000003 44.93750000000001 28.760000000000005 0 0 0
1529 2 21.57 43.14 32.355000000000004 0 0 0
1530 5 21.57 44.93750000000001 34.1525 0 0 0
1531 5 23.367500000000003 43.14 34.1525 0 0 0
1532 1 23.367500000000003 44.93750000000001 32.355000000000004 0 0 0
1533 4 21.57 43.14 35.95 0 0 0
1534 5 21.57 44.93750000000001 37.74750000000001 0 0 0
1535 5 23.367500000000003 43.14 37.74750000000001 0 0 0
1536 3 23.367500000000003 44.93750000000001 35.95 0 0 0
1537 1 21.57 43.14 39.545 0 0 0
1538 3 21.57 44.93750000000001 41.34250000000001 0 0 0
1539 4 23.367500000000003 43.14 41.34250000000001 0 0 0
1540 4 23.367500000000003 44.93750000000001 39.545 0 0 0
1541 5 21.57 43.14 43.14 0 0 0
1542 4 21.57 44.93750000000001 44.93750000000001 0 0 0
1543 1 23.367500000000003 43.14 44.93750000000001 0 0 0
1544 2 23.367500000000003 44.93750000000001 43.14 0 0 0
1545 1 21.57 43.14 46.73500000000001 0 0 0
1546 5 21.57 44.93750000000001 48.53250000000001 0 0 0
1547 4 23.367500000000003 43.14 48.53250000000001 0 0 0
1548 2 23.367500000000003 44.93750000000001 46.73500000000001 0 0 0
1549 4 21.57 43.14 50.330000000000005 0 0 0
1550 1 21.57 44.93750000000001 52.12750000000001 0 0 0
1551 3 23.367500000000003 43.14 52.12750000000001 0 0 0
1552 3 23.367500000000003 44.93750000000001 50.330000000000005 0 0 0
1553 3 21.57 43.14 53.925000000000004 0 0 0
1556 4 23.367500000000003 44.93750000000001 53.925000000000004 0 0 0
1582 2 21.57 48.53250000000001 26.962500000000002 0 0 0