model_files/NiCoCrFeMn/NiCoCrFeMn_30000/NiCoCrFeMn_432/NiCoCrFeMn_432_fcc_29911_temp.data (written by ASE) 

29911 	 atoms 
5  atom types
0.0                     109  xlo xhi
0.0                     109  ylo yhi
0.0                     109  zlo zhi


Atoms 

     1   1      1.7974999999999997      52.127500000000012      53.925000000000004
     2   1      1.7974999999999997      53.925000000000004      52.127500000000012
     3   1                       0      53.925000000000004      53.925000000000004
     4   1      1.7974999999999997      53.925000000000004      55.722500000000004
     5   1      1.7974999999999997      55.722500000000004      53.925000000000004
     6   1      5.3925000000000054      44.937500000000007      53.925000000000004
     7   1      3.5949999999999993      48.532500000000013      52.127500000000012
     8   1      5.3925000000000054      46.735000000000007      52.127500000000012
     9   1      5.3925000000000054      48.532500000000013      50.330000000000005
    10   1      3.5949999999999993      48.532500000000013      55.722500000000004
    11   1      5.3925000000000054      46.735000000000007      55.722500000000004
    12   1      5.3925000000000054      48.532500000000013      53.925000000000004
    13   1      5.3925000000000054      48.532500000000013       57.52000000000001
    14   1      3.5949999999999993      52.127500000000012      48.532500000000013
    15   1      5.3925000000000054      50.330000000000005      48.532500000000013
    16   1      5.3925000000000054      52.127500000000012      46.735000000000007
    17   1      3.5949999999999993      50.330000000000005      50.330000000000005
    18   1      3.5949999999999993      52.127500000000012      52.127500000000012
    19   1      5.3925000000000054      50.330000000000005      52.127500000000012
    20   1      5.3925000000000054      52.127500000000012      50.330000000000005
    21   1      3.5949999999999993      50.330000000000005      53.925000000000004
    22   1      3.5949999999999993      52.127500000000012      55.722500000000004
    23   1      5.3925000000000054      50.330000000000005      55.722500000000004
    24   1      5.3925000000000054      52.127500000000012      53.925000000000004
    25   1      3.5949999999999993      50.330000000000005       57.52000000000001
    26   1      3.5949999999999993      52.127500000000012       59.31750000000001
    27   1      5.3925000000000054      50.330000000000005       59.31750000000001
    28   1      5.3925000000000054      52.127500000000012       57.52000000000001
    29   1      5.3925000000000054      52.127500000000012      61.115000000000016
    30   1      5.3925000000000054      53.925000000000004      44.937500000000007
    31   1      3.5949999999999993      55.722500000000004      48.532500000000013
    32   1      5.3925000000000054      53.925000000000004      48.532500000000013
    33   1      5.3925000000000054      55.722500000000004      46.735000000000007
    34   1      3.5949999999999993      53.925000000000004      50.330000000000005
    35   1      3.5949999999999993      55.722500000000004      52.127500000000012
    36   1      5.3925000000000054      53.925000000000004      52.127500000000012
    37   1      5.3925000000000054      55.722500000000004      50.330000000000005
    38   1      3.5949999999999993      53.925000000000004      53.925000000000004
    39   1      3.5949999999999993      55.722500000000004      55.722500000000004
    40   1      5.3925000000000054      53.925000000000004      55.722500000000004
    41   1      5.3925000000000054      55.722500000000004      53.925000000000004
    42   1      3.5949999999999993      53.925000000000004       57.52000000000001
    43   1      3.5949999999999993      55.722500000000004       59.31750000000001
    44   1      5.3925000000000054      53.925000000000004       59.31750000000001
    45   1      5.3925000000000054      55.722500000000004       57.52000000000001
    46   1      5.3925000000000054      53.925000000000004      62.912500000000016
    47   1      5.3925000000000054      55.722500000000004      61.115000000000016
    48   1      5.3925000000000054       57.52000000000001      48.532500000000013
    49   1      3.5949999999999993       57.52000000000001      50.330000000000005
    50   1      3.5949999999999993       59.31750000000001      52.127500000000012
    51   1      5.3925000000000054       57.52000000000001      52.127500000000012
    52   1      5.3925000000000054       59.31750000000001      50.330000000000005
    53   1      3.5949999999999993       57.52000000000001      53.925000000000004
    54   1      3.5949999999999993       59.31750000000001      55.722500000000004
    55   1      5.3925000000000054       57.52000000000001      55.722500000000004
    56   1      5.3925000000000054       59.31750000000001      53.925000000000004
    57   1      3.5949999999999993       57.52000000000001       57.52000000000001
    58   1      5.3925000000000054       57.52000000000001       59.31750000000001
    59   1      5.3925000000000054       59.31750000000001       57.52000000000001
    60   1      5.3925000000000054      61.115000000000016      52.127500000000012
    61   1      5.3925000000000054      61.115000000000016      55.722500000000004
    62   1      5.3925000000000054      62.912500000000016      53.925000000000004
    63   1       8.987500000000006      41.342500000000008      53.925000000000004
    64   1       8.987500000000006      44.937500000000007      46.735000000000007
    65   1      7.1900000000000057      44.937500000000007      52.127500000000012
    66   1       8.987500000000006      43.140000000000001      52.127500000000012
    67   1       8.987500000000006      44.937500000000007      50.330000000000005
    68   1      7.1900000000000057      43.140000000000001      53.925000000000004
    69   1      7.1900000000000057      44.937500000000007      55.722500000000004
    70   1       8.987500000000006      43.140000000000001      55.722500000000004
    71   1       8.987500000000006      44.937500000000007      53.925000000000004
    72   1       8.987500000000006      44.937500000000007       57.52000000000001
    73   1       8.987500000000006      44.937500000000007      61.115000000000016
    74   1       8.987500000000006      46.735000000000007      44.937500000000007
    75   1      7.1900000000000057      48.532500000000013      48.532500000000013
    76   1       8.987500000000006      46.735000000000007      48.532500000000013
    77   1       8.987500000000006      48.532500000000013      46.735000000000007
    78   1      7.1900000000000057      46.735000000000007      50.330000000000005
    79   1      7.1900000000000057      48.532500000000013      52.127500000000012
    80   1       8.987500000000006      46.735000000000007      52.127500000000012
    81   1       8.987500000000006      48.532500000000013      50.330000000000005
    82   1      7.1900000000000057      46.735000000000007      53.925000000000004
    83   1      7.1900000000000057      48.532500000000013      55.722500000000004
    84   1       8.987500000000006      46.735000000000007      55.722500000000004
    85   1       8.987500000000006      48.532500000000013      53.925000000000004
    86   1      7.1900000000000057      46.735000000000007       57.52000000000001
    87   1      7.1900000000000057      48.532500000000013       59.31750000000001
    88   1       8.987500000000006      46.735000000000007       59.31750000000001
    89   1       8.987500000000006      48.532500000000013       57.52000000000001
    90   1       8.987500000000006      46.735000000000007      62.912500000000016
    91   1       8.987500000000006      48.532500000000013      61.115000000000016
    92   1      7.1900000000000057      52.127500000000012      44.937500000000007
    93   1       8.987500000000006      50.330000000000005      44.937500000000007
    94   1       8.987500000000006      52.127500000000012      43.140000000000001
    95   1      7.1900000000000057      50.330000000000005      46.735000000000007
    96   1      7.1900000000000057      52.127500000000012      48.532500000000013
    97   1       8.987500000000006      50.330000000000005      48.532500000000013
    98   1       8.987500000000006      52.127500000000012      46.735000000000007
    99   1      7.1900000000000057      50.330000000000005      50.330000000000005
   100   1      7.1900000000000057      52.127500000000012      52.127500000000012
   101   1       8.987500000000006      50.330000000000005      52.127500000000012
   102   1       8.987500000000006      52.127500000000012      50.330000000000005
   103   1      7.1900000000000057      50.330000000000005      53.925000000000004
   104   1      7.1900000000000057      52.127500000000012      55.722500000000004
   105   1       8.987500000000006      50.330000000000005      55.722500000000004
   106   1       8.987500000000006      52.127500000000012      53.925000000000004
   107   1      7.1900000000000057      50.330000000000005       57.52000000000001
   108   1      7.1900000000000057      52.127500000000012       59.31750000000001
   109   1       8.987500000000006      50.330000000000005       59.31750000000001
   110   1       8.987500000000006      52.127500000000012       57.52000000000001
   111   1      7.1900000000000057      50.330000000000005      61.115000000000016
   112   1      7.1900000000000057      52.127500000000012      62.912500000000016
   113   1       8.987500000000006      50.330000000000005      62.912500000000016
   114   1       8.987500000000006      52.127500000000012      61.115000000000016
   115   1       8.987500000000006      52.127500000000012      64.710000000000008
   116   1       8.987500000000006      53.925000000000004      41.342500000000008
   117   1      7.1900000000000057      53.925000000000004      43.140000000000001
   118   1      7.1900000000000057      55.722500000000004      44.937500000000007
   119   1       8.987500000000006      53.925000000000004      44.937500000000007
   120   1       8.987500000000006      55.722500000000004      43.140000000000001
   121   1      7.1900000000000057      53.925000000000004      46.735000000000007
   122   1      7.1900000000000057      55.722500000000004      48.532500000000013
   123   1       8.987500000000006      53.925000000000004      48.532500000000013
   124   1       8.987500000000006      55.722500000000004      46.735000000000007
   125   1      7.1900000000000057      53.925000000000004      50.330000000000005
   126   1      7.1900000000000057      55.722500000000004      52.127500000000012
   127   1       8.987500000000006      53.925000000000004      52.127500000000012
   128   1       8.987500000000006      55.722500000000004      50.330000000000005
   129   1      7.1900000000000057      53.925000000000004      53.925000000000004
   130   1      7.1900000000000057      55.722500000000004      55.722500000000004
   131   1       8.987500000000006      53.925000000000004      55.722500000000004
   132   1       8.987500000000006      55.722500000000004      53.925000000000004
   133   1      7.1900000000000057      53.925000000000004       57.52000000000001
   134   1      7.1900000000000057      55.722500000000004       59.31750000000001
   135   1       8.987500000000006      53.925000000000004       59.31750000000001
   136   1       8.987500000000006      55.722500000000004       57.52000000000001
   137   1      7.1900000000000057      53.925000000000004      61.115000000000016
   138   1      7.1900000000000057      55.722500000000004      62.912500000000016
   139   1       8.987500000000006      53.925000000000004      62.912500000000016
   140   1       8.987500000000006      55.722500000000004      61.115000000000016
   141   1      7.1900000000000057      53.925000000000004      64.710000000000008
   142   1       8.987500000000006      53.925000000000004      66.507500000000007
   143   1       8.987500000000006      55.722500000000004      64.710000000000008
   144   1       8.987500000000006       57.52000000000001      44.937500000000007
   145   1      7.1900000000000057       57.52000000000001      46.735000000000007
   146   1      7.1900000000000057       59.31750000000001      48.532500000000013
   147   1       8.987500000000006       57.52000000000001      48.532500000000013
   148   1       8.987500000000006       59.31750000000001      46.735000000000007
   149   1      7.1900000000000057       57.52000000000001      50.330000000000005
   150   1      7.1900000000000057       59.31750000000001      52.127500000000012
   151   1       8.987500000000006       57.52000000000001      52.127500000000012
   152   1       8.987500000000006       59.31750000000001      50.330000000000005
   153   1      7.1900000000000057       57.52000000000001      53.925000000000004
   154   1      7.1900000000000057       59.31750000000001      55.722500000000004
   155   1       8.987500000000006       57.52000000000001      55.722500000000004
   156   1       8.987500000000006       59.31750000000001      53.925000000000004
   157   1      7.1900000000000057       57.52000000000001       57.52000000000001
   158   1      7.1900000000000057       59.31750000000001       59.31750000000001
   159   1       8.987500000000006       57.52000000000001       59.31750000000001
   160   1       8.987500000000006       59.31750000000001       57.52000000000001
   161   1      7.1900000000000057       57.52000000000001      61.115000000000016
   162   1       8.987500000000006       57.52000000000001      62.912500000000016
   163   1       8.987500000000006       59.31750000000001      61.115000000000016
   164   1       8.987500000000006      61.115000000000016      44.937500000000007
   165   1       8.987500000000006      61.115000000000016      48.532500000000013
   166   1       8.987500000000006      62.912500000000016      46.735000000000007
   167   1      7.1900000000000057      61.115000000000016      50.330000000000005
   168   1      7.1900000000000057      62.912500000000016      52.127500000000012
   169   1       8.987500000000006      61.115000000000016      52.127500000000012
   170   1       8.987500000000006      62.912500000000016      50.330000000000005
   171   1      7.1900000000000057      61.115000000000016      53.925000000000004
   172   1      7.1900000000000057      62.912500000000016      55.722500000000004
   173   1       8.987500000000006      61.115000000000016      55.722500000000004
   174   1       8.987500000000006      62.912500000000016      53.925000000000004
   175   1      7.1900000000000057      61.115000000000016       57.52000000000001
   176   1       8.987500000000006      61.115000000000016       59.31750000000001
   177   1       8.987500000000006      62.912500000000016       57.52000000000001
   178   1       8.987500000000006      61.115000000000016      62.912500000000016
   179   1       8.987500000000006      62.912500000000016      61.115000000000016
   180   1       8.987500000000006      64.710000000000008      52.127500000000012
   181   1      7.1900000000000057      64.710000000000008      53.925000000000004
   182   1       8.987500000000006      64.710000000000008      55.722500000000004
   183   1       8.987500000000006      66.507500000000007      53.925000000000004
   184   1      12.582500000000005      37.747500000000009      50.330000000000005
   185   1      12.582500000000005      37.747500000000009      53.925000000000004
   186   1      12.582500000000005      37.747500000000009       57.52000000000001
   187   1      10.785000000000005      41.342500000000008      48.532500000000013
   188   1      12.582500000000005      39.545000000000002      48.532500000000013
   189   1      12.582500000000005      41.342500000000008      46.735000000000007
   190   1      10.785000000000005      41.342500000000008      52.127500000000012
   191   1      12.582500000000005      39.545000000000002      52.127500000000012
   192   1      12.582500000000005      41.342500000000008      50.330000000000005
   193   1      10.785000000000005      39.545000000000002      53.925000000000004
   194   1      10.785000000000005      41.342500000000008      55.722500000000004
   195   1      12.582500000000005      39.545000000000002      55.722500000000004
   196   1      12.582500000000005      41.342500000000008      53.925000000000004
   197   1      10.785000000000005      41.342500000000008       59.31750000000001
   198   1      12.582500000000005      39.545000000000002       59.31750000000001
   199   1      12.582500000000005      41.342500000000008       57.52000000000001
   200   1      12.582500000000005      41.342500000000008      61.115000000000016
   201   1      10.785000000000005      44.937500000000007      44.937500000000007
   202   1      12.582500000000005      43.140000000000001      44.937500000000007
   203   1      12.582500000000005      44.937500000000007      43.140000000000001
   204   1      10.785000000000005      43.140000000000001      46.735000000000007
   205   1      10.785000000000005      44.937500000000007      48.532500000000013
   206   1      12.582500000000005      43.140000000000001      48.532500000000013
   207   1      12.582500000000005      44.937500000000007      46.735000000000007
   208   1      10.785000000000005      43.140000000000001      50.330000000000005
   209   1      10.785000000000005      44.937500000000007      52.127500000000012
   210   1      12.582500000000005      43.140000000000001      52.127500000000012
   211   1      12.582500000000005      44.937500000000007      50.330000000000005
   212   1      10.785000000000005      43.140000000000001      53.925000000000004
   213   1      10.785000000000005      44.937500000000007      55.722500000000004
   214   1      12.582500000000005      43.140000000000001      55.722500000000004
   215   1      12.582500000000005      44.937500000000007      53.925000000000004
   216   1      10.785000000000005      43.140000000000001       57.52000000000001
   217   1      10.785000000000005      44.937500000000007       59.31750000000001
   218   1      12.582500000000005      43.140000000000001       59.31750000000001
   219   1      12.582500000000005      44.937500000000007       57.52000000000001
   220   1      10.785000000000005      43.140000000000001      61.115000000000016
   221   1      10.785000000000005      44.937500000000007      62.912500000000016
   222   1      12.582500000000005      43.140000000000001      62.912500000000016
   223   1      12.582500000000005      44.937500000000007      61.115000000000016
   224   1      12.582500000000005      44.937500000000007      64.710000000000008
   225   1      10.785000000000005      48.532500000000013      41.342500000000008
   226   1      12.582500000000005      46.735000000000007      41.342500000000008
   227   1      12.582500000000005      48.532500000000013      39.545000000000002
   228   1      10.785000000000005      46.735000000000007      43.140000000000001
   229   1      10.785000000000005      48.532500000000013      44.937500000000007
   230   1      12.582500000000005      46.735000000000007      44.937500000000007
   231   1      12.582500000000005      48.532500000000013      43.140000000000001
   232   1      10.785000000000005      46.735000000000007      46.735000000000007
   233   1      10.785000000000005      48.532500000000013      48.532500000000013
   234   1      12.582500000000005      46.735000000000007      48.532500000000013
   235   1      12.582500000000005      48.532500000000013      46.735000000000007
   236   1      10.785000000000005      46.735000000000007      50.330000000000005
   237   1      10.785000000000005      48.532500000000013      52.127500000000012
   238   1      12.582500000000005      46.735000000000007      52.127500000000012
   239   1      12.582500000000005      48.532500000000013      50.330000000000005
   240   1      10.785000000000005      46.735000000000007      53.925000000000004
   241   1      10.785000000000005      48.532500000000013      55.722500000000004
   242   1      12.582500000000005      46.735000000000007      55.722500000000004
   243   1      12.582500000000005      48.532500000000013      53.925000000000004
   244   1      10.785000000000005      46.735000000000007       57.52000000000001
   245   1      10.785000000000005      48.532500000000013       59.31750000000001
   246   1      12.582500000000005      46.735000000000007       59.31750000000001
   247   1      12.582500000000005      48.532500000000013       57.52000000000001
   248   1      10.785000000000005      46.735000000000007      61.115000000000016
   249   1      10.785000000000005      48.532500000000013      62.912500000000016
   250   1      12.582500000000005      46.735000000000007      62.912500000000016
   251   1      12.582500000000005      48.532500000000013      61.115000000000016
   252   1      10.785000000000005      46.735000000000007      64.710000000000008
   253   1      10.785000000000005      48.532500000000013      66.507500000000007
   254   1      12.582500000000005      46.735000000000007      66.507500000000007
   255   1      12.582500000000005      48.532500000000013      64.710000000000008
   256   1      12.582500000000005      48.532500000000013      68.305000000000007
   257   1      12.582500000000005      50.330000000000005      37.747500000000009
   258   1      10.785000000000005      52.127500000000012      41.342500000000008
   259   1      12.582500000000005      50.330000000000005      41.342500000000008
   260   1      12.582500000000005      52.127500000000012      39.545000000000002
   261   1      10.785000000000005      50.330000000000005      43.140000000000001
   262   1      10.785000000000005      52.127500000000012      44.937500000000007
   263   1      12.582500000000005      50.330000000000005      44.937500000000007
   264   1      12.582500000000005      52.127500000000012      43.140000000000001
   265   1      10.785000000000005      50.330000000000005      46.735000000000007
   266   1      10.785000000000005      52.127500000000012      48.532500000000013
   267   1      12.582500000000005      50.330000000000005      48.532500000000013
   268   1      12.582500000000005      52.127500000000012      46.735000000000007
   269   1      10.785000000000005      50.330000000000005      50.330000000000005
   270   1      10.785000000000005      52.127500000000012      52.127500000000012
   271   1      12.582500000000005      50.330000000000005      52.127500000000012
   272   1      12.582500000000005      52.127500000000012      50.330000000000005
   273   1      10.785000000000005      50.330000000000005      53.925000000000004
   274   1      10.785000000000005      52.127500000000012      55.722500000000004
   275   1      12.582500000000005      50.330000000000005      55.722500000000004
   276   1      12.582500000000005      52.127500000000012      53.925000000000004
   277   1      10.785000000000005      50.330000000000005       57.52000000000001
   278   1      10.785000000000005      52.127500000000012       59.31750000000001
   279   1      12.582500000000005      50.330000000000005       59.31750000000001
   280   1      12.582500000000005      52.127500000000012       57.52000000000001
   281   1      10.785000000000005      50.330000000000005      61.115000000000016
   282   1      10.785000000000005      52.127500000000012      62.912500000000016
   283   1      12.582500000000005      50.330000000000005      62.912500000000016
   284   1      12.582500000000005      52.127500000000012      61.115000000000016
   285   1      10.785000000000005      50.330000000000005      64.710000000000008
   286   1      10.785000000000005      52.127500000000012      66.507500000000007
   287   1      12.582500000000005      50.330000000000005      66.507500000000007
   288   1      12.582500000000005      52.127500000000012      64.710000000000008
   289   1      12.582500000000005      50.330000000000005      70.102500000000006
   290   1      12.582500000000005      52.127500000000012      68.305000000000007
   291   1      12.582500000000005      53.925000000000004      37.747500000000009
   292   1      10.785000000000005      53.925000000000004      39.545000000000002
   293   1      10.785000000000005      55.722500000000004      41.342500000000008
   294   1      12.582500000000005      53.925000000000004      41.342500000000008
   295   1      12.582500000000005      55.722500000000004      39.545000000000002
   296   1      10.785000000000005      53.925000000000004      43.140000000000001
   297   1      10.785000000000005      55.722500000000004      44.937500000000007
   298   1      12.582500000000005      53.925000000000004      44.937500000000007
   299   1      12.582500000000005      55.722500000000004      43.140000000000001
   300   1      10.785000000000005      53.925000000000004      46.735000000000007
   301   1      10.785000000000005      55.722500000000004      48.532500000000013
   302   1      12.582500000000005      53.925000000000004      48.532500000000013
   303   1      12.582500000000005      55.722500000000004      46.735000000000007
   304   1      10.785000000000005      53.925000000000004      50.330000000000005
   305   1      10.785000000000005      55.722500000000004      52.127500000000012
   306   1      12.582500000000005      53.925000000000004      52.127500000000012
   307   1      12.582500000000005      55.722500000000004      50.330000000000005
   308   1      10.785000000000005      53.925000000000004      53.925000000000004
   309   1      10.785000000000005      55.722500000000004      55.722500000000004
   310   1      12.582500000000005      53.925000000000004      55.722500000000004
   311   1      12.582500000000005      55.722500000000004      53.925000000000004
   312   1      10.785000000000005      53.925000000000004       57.52000000000001
   313   1      10.785000000000005      55.722500000000004       59.31750000000001
   314   1      12.582500000000005      53.925000000000004       59.31750000000001
   315   1      12.582500000000005      55.722500000000004       57.52000000000001
   316   1      10.785000000000005      53.925000000000004      61.115000000000016
   317   1      10.785000000000005      55.722500000000004      62.912500000000016
   318   1      12.582500000000005      53.925000000000004      62.912500000000016
   319   1      12.582500000000005      55.722500000000004      61.115000000000016
   320   1      10.785000000000005      53.925000000000004      64.710000000000008
   321   1      10.785000000000005      55.722500000000004      66.507500000000007
   322   1      12.582500000000005      53.925000000000004      66.507500000000007
   323   1      12.582500000000005      55.722500000000004      64.710000000000008
   324   1      10.785000000000005      53.925000000000004      68.305000000000007
   325   1      12.582500000000005      53.925000000000004      70.102500000000006
   326   1      12.582500000000005      55.722500000000004      68.305000000000007
   327   1      12.582500000000005       57.52000000000001      37.747500000000009
   328   1      10.785000000000005       59.31750000000001      41.342500000000008
   329   1      12.582500000000005       57.52000000000001      41.342500000000008
   330   1      12.582500000000005       59.31750000000001      39.545000000000002
   331   1      10.785000000000005       57.52000000000001      43.140000000000001
   332   1      10.785000000000005       59.31750000000001      44.937500000000007
   333   1      12.582500000000005       57.52000000000001      44.937500000000007
   334   1      12.582500000000005       59.31750000000001      43.140000000000001
   335   1      10.785000000000005       57.52000000000001      46.735000000000007
   336   1      10.785000000000005       59.31750000000001      48.532500000000013
   337   1      12.582500000000005       57.52000000000001      48.532500000000013
   338   1      12.582500000000005       59.31750000000001      46.735000000000007
   339   1      10.785000000000005       57.52000000000001      50.330000000000005
   340   1      10.785000000000005       59.31750000000001      52.127500000000012
   341   1      12.582500000000005       57.52000000000001      52.127500000000012
   342   1      12.582500000000005       59.31750000000001      50.330000000000005
   343   1      10.785000000000005       57.52000000000001      53.925000000000004
   344   1      10.785000000000005       59.31750000000001      55.722500000000004
   345   1      12.582500000000005       57.52000000000001      55.722500000000004
   346   1      12.582500000000005       59.31750000000001      53.925000000000004
   347   1      10.785000000000005       57.52000000000001       57.52000000000001
   348   1      10.785000000000005       59.31750000000001       59.31750000000001
   349   1      12.582500000000005       57.52000000000001       59.31750000000001
   350   1      12.582500000000005       59.31750000000001       57.52000000000001
   351   1      10.785000000000005       57.52000000000001      61.115000000000016
   352   1      10.785000000000005       59.31750000000001      62.912500000000016
   353   1      12.582500000000005       57.52000000000001      62.912500000000016
   354   1      12.582500000000005       59.31750000000001      61.115000000000016
   355   1      10.785000000000005       57.52000000000001      64.710000000000008
   356   1      10.785000000000005       59.31750000000001      66.507500000000007
   357   1      12.582500000000005       57.52000000000001      66.507500000000007
   358   1      12.582500000000005       59.31750000000001      64.710000000000008