model_files/Co/Co_3000/Co_421/data.Co_421_hcp_3085 (written by ASE) 

3085 	 atoms 
1  atom types
0.0                      30  xlo xhi
0.0                      30  ylo yhi
0.0                      30  zlo zhi


Atoms 

     1   1      1.2549999999999955      11.294999999999995      15.059999999999993
     2   1      1.2549999999999955      12.549999999999994      13.804999999999993
     3   1      1.2549999999999955      13.804999999999993      12.549999999999994
     4   1      1.2549999999999955      12.549999999999994      16.314999999999994
     5   1      1.2549999999999955      13.804999999999993      15.059999999999993
     6   1      1.2549999999999955      13.804999999999993      17.569999999999993
     7   1      1.2549999999999955      15.059999999999993      11.294999999999995
     8   1      1.2549999999999955      15.059999999999993      13.804999999999993
     9   1      1.2549999999999955      16.314999999999994      12.549999999999994
    10   1      29.999999999999993      15.059999999999993      15.059999999999993
    11   1      1.2549999999999955      15.059999999999993      16.314999999999994
    12   1      1.2549999999999955      16.314999999999994      15.059999999999993
    13   1      1.2549999999999955      15.059999999999993      18.824999999999992
    14   1      1.2549999999999955      16.314999999999994      17.569999999999993
    15   1      1.2549999999999955      17.569999999999993      13.804999999999993
    16   1      1.2549999999999955      17.569999999999993      16.314999999999994
    17   1      1.2549999999999955      18.824999999999992      15.059999999999993
    18   1      3.7649999999999935       6.274999999999995      15.059999999999993
    19   1      3.7649999999999935       8.784999999999993      10.039999999999994
    20   1      3.7649999999999935      7.5299999999999931      13.804999999999993
    21   1      3.7649999999999935       8.784999999999993      12.549999999999994
    22   1      3.7649999999999935      7.5299999999999931      16.314999999999994
    23   1      3.7649999999999935       8.784999999999993      15.059999999999993
    24   1      3.7649999999999935       8.784999999999993      17.569999999999993
    25   1      3.7649999999999935       8.784999999999993      20.079999999999991
    26   1      3.7649999999999935      10.039999999999994       8.784999999999993
    27   1      2.5099999999999945      11.294999999999995      11.294999999999995
    28   1      3.7649999999999935      10.039999999999994      11.294999999999995
    29   1      3.7649999999999935      11.294999999999995      10.039999999999994
    30   1      2.5099999999999945      10.039999999999994      12.549999999999994
    31   1      2.5099999999999945      11.294999999999995      13.804999999999993
    32   1      3.7649999999999935      10.039999999999994      13.804999999999993
    33   1      3.7649999999999935      11.294999999999995      12.549999999999994
    34   1      2.5099999999999945      10.039999999999994      15.059999999999993
    35   1      2.5099999999999945      11.294999999999995      16.314999999999994
    36   1      3.7649999999999935      10.039999999999994      16.314999999999994
    37   1      3.7649999999999935      11.294999999999995      15.059999999999993
    38   1      2.5099999999999945      10.039999999999994      17.569999999999993
    39   1      2.5099999999999945      11.294999999999995      18.824999999999992
    40   1      3.7649999999999935      10.039999999999994      18.824999999999992
    41   1      3.7649999999999935      11.294999999999995      17.569999999999993
    42   1      3.7649999999999935      10.039999999999994      21.334999999999987
    43   1      3.7649999999999935      11.294999999999995      20.079999999999991
    44   1      3.7649999999999935      12.549999999999994       8.784999999999993
    45   1      3.7649999999999935      13.804999999999993      7.5299999999999931
    46   1      2.5099999999999945      12.549999999999994      10.039999999999994
    47   1      2.5099999999999945      13.804999999999993      11.294999999999995
    48   1      3.7649999999999935      12.549999999999994      11.294999999999995
    49   1      3.7649999999999935      13.804999999999993      10.039999999999994
    50   1      2.5099999999999945      12.549999999999994      12.549999999999994
    51   1      2.5099999999999945      13.804999999999993      13.804999999999993
    52   1      3.7649999999999935      12.549999999999994      13.804999999999993
    53   1      3.7649999999999935      13.804999999999993      12.549999999999994
    54   1      2.5099999999999945      12.549999999999994      15.059999999999993
    55   1      2.5099999999999945      13.804999999999993      16.314999999999994
    56   1      3.7649999999999935      12.549999999999994      16.314999999999994
    57   1      3.7649999999999935      13.804999999999993      15.059999999999993
    58   1      2.5099999999999945      12.549999999999994      17.569999999999993
    59   1      2.5099999999999945      13.804999999999993      18.824999999999992
    60   1      3.7649999999999935      12.549999999999994      18.824999999999992
    61   1      3.7649999999999935      13.804999999999993      17.569999999999993
    62   1      2.5099999999999945      12.549999999999994      20.079999999999991
    63   1      3.7649999999999935      12.549999999999994      21.334999999999987
    64   1      3.7649999999999935      13.804999999999993      20.079999999999991
    65   1      3.7649999999999935      13.804999999999993      22.589999999999993
    66   1      3.7649999999999935      15.059999999999993       6.274999999999995
    67   1      3.7649999999999935      15.059999999999993       8.784999999999993
    68   1      3.7649999999999935      16.314999999999994      7.5299999999999931
    69   1      2.5099999999999945      15.059999999999993      10.039999999999994
    70   1      2.5099999999999945      16.314999999999994      11.294999999999995
    71   1      3.7649999999999935      15.059999999999993      11.294999999999995
    72   1      3.7649999999999935      16.314999999999994      10.039999999999994
    73   1      2.5099999999999945      15.059999999999993      12.549999999999994
    74   1      2.5099999999999945      16.314999999999994      13.804999999999993
    75   1      3.7649999999999935      15.059999999999993      13.804999999999993
    76   1      3.7649999999999935      16.314999999999994      12.549999999999994
    77   1      2.5099999999999945      15.059999999999993      15.059999999999993
    78   1      2.5099999999999945      16.314999999999994      16.314999999999994
    79   1      3.7649999999999935      15.059999999999993      16.314999999999994
    80   1      3.7649999999999935      16.314999999999994      15.059999999999993
    81   1      2.5099999999999945      15.059999999999993      17.569999999999993
    82   1      2.5099999999999945      16.314999999999994      18.824999999999992
    83   1      3.7649999999999935      15.059999999999993      18.824999999999992
    84   1      3.7649999999999935      16.314999999999994      17.569999999999993
    85   1      2.5099999999999945      15.059999999999993      20.079999999999991
    86   1      3.7649999999999935      15.059999999999993      21.334999999999987
    87   1      3.7649999999999935      16.314999999999994      20.079999999999991
    88   1      3.7649999999999935      15.059999999999993      23.844999999999992
    89   1      3.7649999999999935      16.314999999999994      22.589999999999993
    90   1      3.7649999999999935      17.569999999999993       8.784999999999993
    91   1      2.5099999999999945      17.569999999999993      10.039999999999994
    92   1      2.5099999999999945      18.824999999999992      11.294999999999995
    93   1      3.7649999999999935      17.569999999999993      11.294999999999995
    94   1      3.7649999999999935      18.824999999999992      10.039999999999994
    95   1      2.5099999999999945      17.569999999999993      12.549999999999994
    96   1      2.5099999999999945      18.824999999999992      13.804999999999993
    97   1      3.7649999999999935      17.569999999999993      13.804999999999993
    98   1      3.7649999999999935      18.824999999999992      12.549999999999994
    99   1      2.5099999999999945      17.569999999999993      15.059999999999993
   100   1      2.5099999999999945      18.824999999999992      16.314999999999994
   101   1      3.7649999999999935      17.569999999999993      16.314999999999994
   102   1      3.7649999999999935      18.824999999999992      15.059999999999993
   103   1      2.5099999999999945      17.569999999999993      17.569999999999993
   104   1      2.5099999999999945      18.824999999999992      18.824999999999992
   105   1      3.7649999999999935      17.569999999999993      18.824999999999992
   106   1      3.7649999999999935      18.824999999999992      17.569999999999993
   107   1      2.5099999999999945      17.569999999999993      20.079999999999991
   108   1      3.7649999999999935      17.569999999999993      21.334999999999987
   109   1      3.7649999999999935      18.824999999999992      20.079999999999991
   110   1      3.7649999999999935      20.079999999999991       8.784999999999993
   111   1      3.7649999999999935      20.079999999999991      11.294999999999995
   112   1      3.7649999999999935      21.334999999999987      10.039999999999994
   113   1      2.5099999999999945      20.079999999999991      12.549999999999994
   114   1      3.7649999999999935      20.079999999999991      13.804999999999993
   115   1      3.7649999999999935      21.334999999999987      12.549999999999994
   116   1      2.5099999999999945      20.079999999999991      15.059999999999993
   117   1      3.7649999999999935      20.079999999999991      16.314999999999994
   118   1      3.7649999999999935      21.334999999999987      15.059999999999993
   119   1      2.5099999999999945      20.079999999999991      17.569999999999993
   120   1      3.7649999999999935      20.079999999999991      18.824999999999992
   121   1      3.7649999999999935      21.334999999999987      17.569999999999993
   122   1      3.7649999999999935      20.079999999999991      21.334999999999987
   123   1      3.7649999999999935      21.334999999999987      20.079999999999991
   124   1      3.7649999999999935      22.589999999999993      13.804999999999993
   125   1      3.7649999999999935      22.589999999999993      16.314999999999994
   126   1      3.7649999999999935      23.844999999999992      15.059999999999993
   127   1       6.274999999999995      3.7649999999999935      15.059999999999993
   128   1       6.274999999999995       6.274999999999995      7.5299999999999931
   129   1      5.0199999999999942       6.274999999999995      11.294999999999995
   130   1       6.274999999999995      5.0199999999999942      11.294999999999995
   131   1       6.274999999999995       6.274999999999995      10.039999999999994
   132   1      5.0199999999999942      5.0199999999999942      12.549999999999994
   133   1      5.0199999999999942       6.274999999999995      13.804999999999993
   134   1       6.274999999999995      5.0199999999999942      13.804999999999993
   135   1       6.274999999999995       6.274999999999995      12.549999999999994
   136   1      5.0199999999999942      5.0199999999999942      15.059999999999993
   137   1      5.0199999999999942       6.274999999999995      16.314999999999994
   138   1       6.274999999999995      5.0199999999999942      16.314999999999994
   139   1       6.274999999999995       6.274999999999995      15.059999999999993
   140   1      5.0199999999999942      5.0199999999999942      17.569999999999993
   141   1      5.0199999999999942       6.274999999999995      18.824999999999992
   142   1       6.274999999999995      5.0199999999999942      18.824999999999992
   143   1       6.274999999999995       6.274999999999995      17.569999999999993
   144   1       6.274999999999995       6.274999999999995      20.079999999999991
   145   1       6.274999999999995       6.274999999999995      22.589999999999993
   146   1       6.274999999999995      7.5299999999999931       6.274999999999995
   147   1      5.0199999999999942      7.5299999999999931      7.5299999999999931
   148   1      5.0199999999999942       8.784999999999993       8.784999999999993
   149   1       6.274999999999995      7.5299999999999931       8.784999999999993
   150   1       6.274999999999995       8.784999999999993      7.5299999999999931
   151   1      5.0199999999999942      7.5299999999999931      10.039999999999994
   152   1      5.0199999999999942       8.784999999999993      11.294999999999995
   153   1       6.274999999999995      7.5299999999999931      11.294999999999995
   154   1       6.274999999999995       8.784999999999993      10.039999999999994
   155   1      5.0199999999999942      7.5299999999999931      12.549999999999994
   156   1      5.0199999999999942       8.784999999999993      13.804999999999993
   157   1       6.274999999999995      7.5299999999999931      13.804999999999993
   158   1       6.274999999999995       8.784999999999993      12.549999999999994
   159   1      5.0199999999999942      7.5299999999999931      15.059999999999993
   160   1      5.0199999999999942       8.784999999999993      16.314999999999994
   161   1       6.274999999999995      7.5299999999999931      16.314999999999994
   162   1       6.274999999999995       8.784999999999993      15.059999999999993
   163   1      5.0199999999999942      7.5299999999999931      17.569999999999993
   164   1      5.0199999999999942       8.784999999999993      18.824999999999992
   165   1       6.274999999999995      7.5299999999999931      18.824999999999992
   166   1       6.274999999999995       8.784999999999993      17.569999999999993
   167   1      5.0199999999999942      7.5299999999999931      20.079999999999991
   168   1      5.0199999999999942       8.784999999999993      21.334999999999987
   169   1       6.274999999999995      7.5299999999999931      21.334999999999987
   170   1       6.274999999999995       8.784999999999993      20.079999999999991
   171   1      5.0199999999999942      7.5299999999999931      22.589999999999993
   172   1       6.274999999999995      7.5299999999999931      23.844999999999992
   173   1       6.274999999999995       8.784999999999993      22.589999999999993
   174   1      5.0199999999999942      11.294999999999995       6.274999999999995
   175   1       6.274999999999995      10.039999999999994       6.274999999999995
   176   1       6.274999999999995      11.294999999999995      5.0199999999999942
   177   1      5.0199999999999942      10.039999999999994      7.5299999999999931
   178   1      5.0199999999999942      11.294999999999995       8.784999999999993
   179   1       6.274999999999995      10.039999999999994       8.784999999999993
   180   1       6.274999999999995      11.294999999999995      7.5299999999999931
   181   1      5.0199999999999942      10.039999999999994      10.039999999999994
   182   1      5.0199999999999942      11.294999999999995      11.294999999999995
   183   1       6.274999999999995      10.039999999999994      11.294999999999995
   184   1       6.274999999999995      11.294999999999995      10.039999999999994
   185   1      5.0199999999999942      10.039999999999994      12.549999999999994
   186   1      5.0199999999999942      11.294999999999995      13.804999999999993
   187   1       6.274999999999995      10.039999999999994      13.804999999999993
   188   1       6.274999999999995      11.294999999999995      12.549999999999994
   189   1      5.0199999999999942      10.039999999999994      15.059999999999993
   190   1      5.0199999999999942      11.294999999999995      16.314999999999994
   191   1       6.274999999999995      10.039999999999994      16.314999999999994
   192   1       6.274999999999995      11.294999999999995      15.059999999999993
   193   1      5.0199999999999942      10.039999999999994      17.569999999999993
   194   1      5.0199999999999942      11.294999999999995      18.824999999999992
   195   1       6.274999999999995      10.039999999999994      18.824999999999992
   196   1       6.274999999999995      11.294999999999995      17.569999999999993
   197   1      5.0199999999999942      10.039999999999994      20.079999999999991
   198   1      5.0199999999999942      11.294999999999995      21.334999999999987
   199   1       6.274999999999995      10.039999999999994      21.334999999999987
   200   1       6.274999999999995      11.294999999999995      20.079999999999991
   201   1      5.0199999999999942      10.039999999999994      22.589999999999993
   202   1      5.0199999999999942      11.294999999999995      23.844999999999992
   203   1       6.274999999999995      10.039999999999994      23.844999999999992
   204   1       6.274999999999995      11.294999999999995      22.589999999999993
   205   1       6.274999999999995      11.294999999999995      25.099999999999994
   206   1      5.0199999999999942      12.549999999999994      5.0199999999999942
   207   1      5.0199999999999942      13.804999999999993       6.274999999999995
   208   1       6.274999999999995      12.549999999999994       6.274999999999995
   209   1       6.274999999999995      13.804999999999993      5.0199999999999942
   210   1      5.0199999999999942      12.549999999999994      7.5299999999999931
   211   1      5.0199999999999942      13.804999999999993       8.784999999999993
   212   1       6.274999999999995      12.549999999999994       8.784999999999993
   213   1       6.274999999999995      13.804999999999993      7.5299999999999931
   214   1      5.0199999999999942      12.549999999999994      10.039999999999994
   215   1      5.0199999999999942      13.804999999999993      11.294999999999995
   216   1       6.274999999999995      12.549999999999994      11.294999999999995
   217   1       6.274999999999995      13.804999999999993      10.039999999999994
   218   1      5.0199999999999942      12.549999999999994      12.549999999999994
   219   1      5.0199999999999942      13.804999999999993      13.804999999999993
   220   1       6.274999999999995      12.549999999999994      13.804999999999993
   221   1       6.274999999999995      13.804999999999993      12.549999999999994
   222   1      5.0199999999999942      12.549999999999994      15.059999999999993
   223   1      5.0199999999999942      13.804999999999993      16.314999999999994
   224   1       6.274999999999995      12.549999999999994      16.314999999999994
   225   1       6.274999999999995      13.804999999999993      15.059999999999993
   226   1      5.0199999999999942      12.549999999999994      17.569999999999993
   227   1      5.0199999999999942      13.804999999999993      18.824999999999992
   228   1       6.274999999999995      12.549999999999994      18.824999999999992
   229   1       6.274999999999995      13.804999999999993      17.569999999999993
   230   1      5.0199999999999942      12.549999999999994      20.079999999999991
   231   1      5.0199999999999942      13.804999999999993      21.334999999999987
   232   1       6.274999999999995      12.549999999999994      21.334999999999987
   233   1       6.274999999999995      13.804999999999993      20.079999999999991
   234   1      5.0199999999999942      12.549999999999994      22.589999999999993
   235   1      5.0199999999999942      13.804999999999993      23.844999999999992
   236   1       6.274999999999995      12.549999999999994      23.844999999999992
   237   1       6.274999999999995      13.804999999999993      22.589999999999993
   238   1      5.0199999999999942      12.549999999999994      25.099999999999994
   239   1       6.274999999999995      13.804999999999993      25.099999999999994
   240   1       6.274999999999995      15.059999999999993      3.7649999999999935
   241   1      5.0199999999999942      15.059999999999993      5.0199999999999942
   242   1      5.0199999999999942      16.314999999999994       6.274999999999995
   243   1       6.274999999999995      15.059999999999993       6.274999999999995
   244   1       6.274999999999995      16.314999999999994      5.0199999999999942
   245   1      5.0199999999999942      15.059999999999993      7.5299999999999931
   246   1      5.0199999999999942      16.314999999999994       8.784999999999993
   247   1       6.274999999999995      15.059999999999993       8.784999999999993
   248   1       6.274999999999995      16.314999999999994      7.5299999999999931
   249   1      5.0199999999999942      15.059999999999993      10.039999999999994
   250   1      5.0199999999999942      16.314999999999994      11.294999999999995
   251   1       6.274999999999995      15.059999999999993      11.294999999999995
   252   1       6.274999999999995      16.314999999999994      10.039999999999994
   253   1      5.0199999999999942      15.059999999999993      12.549999999999994
   254   1      5.0199999999999942      16.314999999999994      13.804999999999993
   255   1       6.274999999999995      15.059999999999993      13.804999999999993
   256   1       6.274999999999995      16.314999999999994      12.549999999999994
   257   1      5.0199999999999942      15.059999999999993      15.059999999999993
   258   1      5.0199999999999942      16.314999999999994      16.314999999999994
   259   1       6.274999999999995      15.059999999999993      16.314999999999994
   260   1       6.274999999999995      16.314999999999994      15.059999999999993
   261   1      5.0199999999999942      15.059999999999993      17.569999999999993
   262   1      5.0199999999999942      16.314999999999994      18.824999999999992
   263   1       6.274999999999995      15.059999999999993      18.824999999999992
   264   1       6.274999999999995      16.314999999999994      17.569999999999993
   265   1      5.0199999999999942      15.059999999999993      20.079999999999991
   266   1      5.0199999999999942      16.314999999999994      21.334999999999987
   267   1       6.274999999999995      15.059999999999993      21.334999999999987
   268   1       6.274999999999995      16.314999999999994      20.079999999999991
   269   1      5.0199999999999942      15.059999999999993      22.589999999999993
   270   1      5.0199999999999942      16.314999999999994      23.844999999999992
   271   1       6.274999999999995      15.059999999999993      23.844999999999992
   272   1       6.274999999999995      16.314999999999994      22.589999999999993
   273   1      5.0199999999999942      15.059999999999993      25.099999999999994
   274   1       6.274999999999995      15.059999999999993      26.354999999999993
   275   1       6.274999999999995      16.314999999999994      25.099999999999994
   276   1      5.0199999999999942      17.569999999999993      5.0199999999999942
   277   1      5.0199999999999942      18.824999999999992       6.274999999999995
   278   1       6.274999999999995      17.569999999999993       6.274999999999995
   279   1       6.274999999999995      18.824999999999992      5.0199999999999942
   280   1      5.0199999999999942      17.569999999999993      7.5299999999999931
   281   1      5.0199999999999942      18.824999999999992       8.784999999999993
   282   1       6.274999999999995      17.569999999999993       8.784999999999993
   283   1       6.274999999999995      18.824999999999992      7.5299999999999931
   284   1      5.0199999999999942      17.569999999999993      10.039999999999994
   285   1      5.0199999999999942      18.824999999999992      11.294999999999995
   286   1       6.274999999999995      17.569999999999993      11.294999999999995
   287   1       6.274999999999995      18.824999999999992      10.039999999999994
   288   1      5.0199999999999942      17.569999999999993      12.549999999999994
   289   1      5.0199999999999942      18.824999999999992      13.804999999999993
   290   1       6.274999999999995      17.569999999999993      13.804999999999993
   291   1       6.274999999999995      18.824999999999992      12.549999999999994
   292   1      5.0199999999999942      17.569999999999993      15.059999999999993
   293   1      5.0199999999999942      18.824999999999992      16.314999999999994
   294   1       6.274999999999995      17.569999999999993      16.314999999999994
   295   1       6.274999999999995      18.824999999999992      15.059999999999993
   296   1      5.0199999999999942      17.569999999999993      17.569999999999993
   297   1      5.0199999999999942      18.824999999999992      18.824999999999992
   298   1       6.274999999999995      17.569999999999993      18.824999999999992
   299   1       6.274999999999995      18.824999999999992      17.569999999999993
   300   1      5.0199999999999942      17.569999999999993      20.079999999999991
   301   1      5.0199999999999942      18.824999999999992      21.334999999999987
   302   1       6.274999999999995      17.569999999999993      21.334999999999987
   303   1       6.274999999999995      18.824999999999992      20.079999999999991
   304   1      5.0199999999999942      17.569999999999993      22.589999999999993
   305   1      5.0199999999999942      18.824999999999992      23.844999999999992
   306   1       6.274999999999995      17.569999999999993      23.844999999999992
   307   1       6.274999999999995      18.824999999999992      22.589999999999993
   308   1      5.0199999999999942      17.569999999999993      25.099999999999994
   309   1       6.274999999999995      18.824999999999992      25.099999999999994
   310   1       6.274999999999995      20.079999999999991       6.274999999999995
   311   1      5.0199999999999942      20.079999999999991      7.5299999999999931
   312   1      5.0199999999999942      21.334999999999987       8.784999999999993
   313   1       6.274999999999995      20.079999999999991       8.784999999999993
   314   1       6.274999999999995      21.334999999999987      7.5299999999999931
   315   1      5.0199999999999942      20.079999999999991      10.039999999999994
   316   1      5.0199999999999942      21.334999999999987      11.294999999999995
   317   1       6.274999999999995      20.079999999999991      11.294999999999995
   318   1       6.274999999999995      21.334999999999987      10.039999999999994
   319   1      5.0199999999999942      20.079999999999991      12.549999999999994
   320   1      5.0199999999999942      21.334999999999987      13.804999999999993
   321   1       6.274999999999995      20.079999999999991      13.804999999999993
   322   1       6.274999999999995      21.334999999999987      12.549999999999994
   323   1      5.0199999999999942      20.079999999999991      15.059999999999993
   324   1      5.0199999999999942      21.334999999999987      16.314999999999994
   325   1       6.274999999999995      20.079999999999991      16.314999999999994
   326   1       6.274999999999995      21.334999999999987      15.059999999999993
   327   1      5.0199999999999942      20.079999999999991      17.569999999999993
   328   1      5.0199999999999942      21.334999999999987      18.824999999999992
   329   1       6.274999999999995      20.079999999999991      18.824999999999992
   330   1       6.274999999999995      21.334999999999987      17.569999999999993
   331   1      5.0199999999999942      20.079999999999991      20.079999999999991
   332   1      5.0199999999999942      21.334999999999987      21.334999999999987
   333   1       6.274999999999995      20.079999999999991      21.334999999999987
   334   1       6.274999999999995      21.334999999999987      20.079999999999991
   335   1      5.0199999999999942      20.079999999999991      22.589999999999993
   336   1       6.274999999999995      20.079999999999991      23.844999999999992
   337   1       6.274999999999995      21.334999999999987      22.589999999999993
   338   1       6.274999999999995      22.589999999999993       6.274999999999995
   339   1      5.0199999999999942      22.589999999999993      7.5299999999999931
   340   1       6.274999999999995      22.589999999999993       8.784999999999993
   341   1       6.274999999999995      23.844999999999992      7.5299999999999931
   342   1      5.0199999999999942      22.589999999999993      10.039999999999994
   343   1      5.0199999999999942      23.844999999999992      11.294999999999995
   344   1       6.274999999999995      22.589999999999993      11.294999999999995
   345   1       6.274999999999995      23.844999999999992      10.039999999999994
   346   1      5.0199999999999942      22.589999999999993      12.549999999999994
   347   1      5.0199999999999942      23.844999999999992      13.804999999999993
   348   1       6.274999999999995      22.589999999999993      13.804999999999993
   349   1       6.274999999999995      23.844999999999992      12.549999999999994
   350   1      5.0199999999999942      22.589999999999993      15.059999999999993
   351   1      5.0199999999999942      23.844999999999992      16.314999999999994
   352   1       6.274999999999995      22.589999999999993      16.314999999999994
   353   1       6.274999999999995      23.844999999999992      15.059999999999993
   354   1      5.0199999999999942      22.589999999999993      17.569999999999993
   355   1      5.0199999999999942      23.844999999999992      18.824999999999992
   356   1       6.274999999999995      22.589999999999993      18.824999999999992
   357   1       6.274999999999995      23.844999999999992      17.569999999999993
   358   1      5.0199999999999942      22.589999999999993      20.079999999999991