model_files/NiCoCrFeMn/NiCoCrFeMn_30000/NiCoCrFeMn_531/NiCoCrFeMn_531_fcc_29859_temp.data (written by ASE) 

29859 	 atoms 
5  atom types
0.0                      99  xlo xhi
0.0                      99  ylo yhi
0.0                      99  zlo zhi


Atoms 

     1   1                       0      46.734999999999999      48.532500000000013
     2   1                       0      48.532500000000013      46.734999999999999
     3   1                       0      48.532500000000013      50.330000000000013
     4   1                       0      50.330000000000013      48.532500000000013
     5   1      3.5949999999999993      41.342500000000001      46.734999999999999
     6   1      3.5949999999999993      43.140000000000001                 44.9375
     7   1      3.5949999999999993      41.342500000000001      50.330000000000013
     8   1      3.5949999999999993      43.140000000000001      48.532500000000013
     9   1      3.5949999999999993      43.140000000000001      52.127500000000012
    10   1      3.5949999999999993                 44.9375      43.140000000000001
    11   1      3.5949999999999993      46.734999999999999      41.342500000000001
    12   1      1.7974999999999997                 44.9375                 44.9375
    13   1      1.7974999999999997      46.734999999999999      46.734999999999999
    14   1      3.5949999999999993                 44.9375      46.734999999999999
    15   1      3.5949999999999993      46.734999999999999                 44.9375
    16   1      1.7974999999999997                 44.9375      48.532500000000013
    17   1      1.7974999999999997      46.734999999999999      50.330000000000013
    18   1      3.5949999999999993                 44.9375      50.330000000000013
    19   1      3.5949999999999993      46.734999999999999      48.532500000000013
    20   1      1.7974999999999997                 44.9375      52.127500000000012
    21   1      3.5949999999999993                 44.9375      53.925000000000011
    22   1      3.5949999999999993      46.734999999999999      52.127500000000012
    23   1      3.5949999999999993      46.734999999999999      55.722500000000011
    24   1      3.5949999999999993      48.532500000000013      43.140000000000001
    25   1      3.5949999999999993      50.330000000000013      41.342500000000001
    26   1      1.7974999999999997      48.532500000000013                 44.9375
    27   1      1.7974999999999997      50.330000000000013      46.734999999999999
    28   1      3.5949999999999993      48.532500000000013      46.734999999999999
    29   1      3.5949999999999993      50.330000000000013                 44.9375
    30   1      1.7974999999999997      48.532500000000013      48.532500000000013
    31   1      1.7974999999999997      50.330000000000013      50.330000000000013
    32   1      3.5949999999999993      48.532500000000013      50.330000000000013
    33   1      3.5949999999999993      50.330000000000013      48.532500000000013
    34   1      1.7974999999999997      48.532500000000013      52.127500000000012
    35   1      3.5949999999999993      48.532500000000013      53.925000000000011
    36   1      3.5949999999999993      50.330000000000013      52.127500000000012
    37   1      3.5949999999999993      50.330000000000013      55.722500000000011
    38   1      3.5949999999999993      52.127500000000012      43.140000000000001
    39   1      1.7974999999999997      52.127500000000012                 44.9375
    40   1      3.5949999999999993      52.127500000000012      46.734999999999999
    41   1      3.5949999999999993      53.925000000000011                 44.9375
    42   1      1.7974999999999997      52.127500000000012      48.532500000000013
    43   1      3.5949999999999993      52.127500000000012      50.330000000000013
    44   1      3.5949999999999993      53.925000000000011      48.532500000000013
    45   1      1.7974999999999997      52.127500000000012      52.127500000000012
    46   1      3.5949999999999993      52.127500000000012      53.925000000000011
    47   1      3.5949999999999993      53.925000000000011      52.127500000000012
    48   1      3.5949999999999993      55.722500000000011      46.734999999999999
    49   1      3.5949999999999993      55.722500000000011      50.330000000000013
    50   1      7.1900000000000048      35.950000000000003                 44.9375
    51   1      7.1900000000000048      35.950000000000003      48.532500000000013
    52   1      7.1900000000000048      35.950000000000003      52.127500000000012
    53   1      7.1900000000000048      37.747500000000002      39.545000000000002
    54   1      7.1900000000000048      39.545000000000002      37.747500000000002
    55   1      5.3924999999999992      39.545000000000002      43.140000000000001
    56   1      7.1900000000000048      37.747500000000002      43.140000000000001
    57   1      7.1900000000000048      39.545000000000002      41.342500000000001
    58   1      5.3924999999999992      39.545000000000002      46.734999999999999
    59   1      7.1900000000000048      37.747500000000002      46.734999999999999
    60   1      7.1900000000000048      39.545000000000002                 44.9375
    61   1      5.3924999999999992      37.747500000000002      48.532500000000013
    62   1      5.3924999999999992      39.545000000000002      50.330000000000013
    63   1      7.1900000000000048      37.747500000000002      50.330000000000013
    64   1      7.1900000000000048      39.545000000000002      48.532500000000013
    65   1      5.3924999999999992      39.545000000000002      53.925000000000011
    66   1      7.1900000000000048      37.747500000000002      53.925000000000011
    67   1      7.1900000000000048      39.545000000000002      52.127500000000012
    68   1      7.1900000000000048      37.747500000000002       57.52000000000001
    69   1      7.1900000000000048      39.545000000000002      55.722500000000011
    70   1      7.1900000000000048      39.545000000000002       59.31750000000001
    71   1      5.3924999999999992      43.140000000000001      39.545000000000002
    72   1      7.1900000000000048      41.342500000000001      39.545000000000002
    73   1      7.1900000000000048      43.140000000000001      37.747500000000002
    74   1      5.3924999999999992      41.342500000000001      41.342500000000001
    75   1      5.3924999999999992      43.140000000000001      43.140000000000001
    76   1      7.1900000000000048      41.342500000000001      43.140000000000001
    77   1      7.1900000000000048      43.140000000000001      41.342500000000001
    78   1      5.3924999999999992      41.342500000000001                 44.9375
    79   1      5.3924999999999992      43.140000000000001      46.734999999999999
    80   1      7.1900000000000048      41.342500000000001      46.734999999999999
    81   1      7.1900000000000048      43.140000000000001                 44.9375
    82   1      5.3924999999999992      41.342500000000001      48.532500000000013
    83   1      5.3924999999999992      43.140000000000001      50.330000000000013
    84   1      7.1900000000000048      41.342500000000001      50.330000000000013
    85   1      7.1900000000000048      43.140000000000001      48.532500000000013
    86   1      5.3924999999999992      41.342500000000001      52.127500000000012
    87   1      5.3924999999999992      43.140000000000001      53.925000000000011
    88   1      7.1900000000000048      41.342500000000001      53.925000000000011
    89   1      7.1900000000000048      43.140000000000001      52.127500000000012
    90   1      5.3924999999999992      41.342500000000001      55.722500000000011
    91   1      5.3924999999999992      43.140000000000001       57.52000000000001
    92   1      7.1900000000000048      41.342500000000001       57.52000000000001
    93   1      7.1900000000000048      43.140000000000001      55.722500000000011
    94   1      7.1900000000000048      43.140000000000001       59.31750000000001
    95   1      7.1900000000000048                 44.9375      35.950000000000003
    96   1      5.3924999999999992      46.734999999999999      39.545000000000002
    97   1      7.1900000000000048                 44.9375      39.545000000000002
    98   1      7.1900000000000048      46.734999999999999      37.747500000000002
    99   1      5.3924999999999992                 44.9375      41.342500000000001
   100   1      5.3924999999999992      46.734999999999999      43.140000000000001
   101   1      7.1900000000000048                 44.9375      43.140000000000001
   102   1      7.1900000000000048      46.734999999999999      41.342500000000001
   103   1      5.3924999999999992                 44.9375                 44.9375
   104   1      5.3924999999999992      46.734999999999999      46.734999999999999
   105   1      7.1900000000000048                 44.9375      46.734999999999999
   106   1      7.1900000000000048      46.734999999999999                 44.9375
   107   1      5.3924999999999992                 44.9375      48.532500000000013
   108   1      5.3924999999999992      46.734999999999999      50.330000000000013
   109   1      7.1900000000000048                 44.9375      50.330000000000013
   110   1      7.1900000000000048      46.734999999999999      48.532500000000013
   111   1      5.3924999999999992                 44.9375      52.127500000000012
   112   1      5.3924999999999992      46.734999999999999      53.925000000000011
   113   1      7.1900000000000048                 44.9375      53.925000000000011
   114   1      7.1900000000000048      46.734999999999999      52.127500000000012
   115   1      5.3924999999999992                 44.9375      55.722500000000011
   116   1      5.3924999999999992      46.734999999999999       57.52000000000001
   117   1      7.1900000000000048                 44.9375       57.52000000000001
   118   1      7.1900000000000048      46.734999999999999      55.722500000000011
   119   1      7.1900000000000048                 44.9375      61.115000000000009
   120   1      7.1900000000000048      46.734999999999999       59.31750000000001
   121   1      7.1900000000000048      48.532500000000013      35.950000000000003
   122   1      5.3924999999999992      48.532500000000013      37.747500000000002
   123   1      5.3924999999999992      50.330000000000013      39.545000000000002
   124   1      7.1900000000000048      48.532500000000013      39.545000000000002
   125   1      7.1900000000000048      50.330000000000013      37.747500000000002
   126   1      5.3924999999999992      48.532500000000013      41.342500000000001
   127   1      5.3924999999999992      50.330000000000013      43.140000000000001
   128   1      7.1900000000000048      48.532500000000013      43.140000000000001
   129   1      7.1900000000000048      50.330000000000013      41.342500000000001
   130   1      5.3924999999999992      48.532500000000013                 44.9375
   131   1      5.3924999999999992      50.330000000000013      46.734999999999999
   132   1      7.1900000000000048      48.532500000000013      46.734999999999999
   133   1      7.1900000000000048      50.330000000000013                 44.9375
   134   1      5.3924999999999992      48.532500000000013      48.532500000000013
   135   1      5.3924999999999992      50.330000000000013      50.330000000000013
   136   1      7.1900000000000048      48.532500000000013      50.330000000000013
   137   1      7.1900000000000048      50.330000000000013      48.532500000000013
   138   1      5.3924999999999992      48.532500000000013      52.127500000000012
   139   1      5.3924999999999992      50.330000000000013      53.925000000000011
   140   1      7.1900000000000048      48.532500000000013      53.925000000000011
   141   1      7.1900000000000048      50.330000000000013      52.127500000000012
   142   1      5.3924999999999992      48.532500000000013      55.722500000000011
   143   1      5.3924999999999992      50.330000000000013       57.52000000000001
   144   1      7.1900000000000048      48.532500000000013       57.52000000000001
   145   1      7.1900000000000048      50.330000000000013      55.722500000000011
   146   1      5.3924999999999992      48.532500000000013       59.31750000000001
   147   1      7.1900000000000048      48.532500000000013      61.115000000000009
   148   1      7.1900000000000048      50.330000000000013       59.31750000000001
   149   1      7.1900000000000048      52.127500000000012      35.950000000000003
   150   1      5.3924999999999992      53.925000000000011      39.545000000000002
   151   1      7.1900000000000048      52.127500000000012      39.545000000000002
   152   1      7.1900000000000048      53.925000000000011      37.747500000000002
   153   1      5.3924999999999992      52.127500000000012      41.342500000000001
   154   1      5.3924999999999992      53.925000000000011      43.140000000000001
   155   1      7.1900000000000048      52.127500000000012      43.140000000000001
   156   1      7.1900000000000048      53.925000000000011      41.342500000000001
   157   1      5.3924999999999992      52.127500000000012                 44.9375
   158   1      5.3924999999999992      53.925000000000011      46.734999999999999
   159   1      7.1900000000000048      52.127500000000012      46.734999999999999
   160   1      7.1900000000000048      53.925000000000011                 44.9375
   161   1      5.3924999999999992      52.127500000000012      48.532500000000013
   162   1      5.3924999999999992      53.925000000000011      50.330000000000013
   163   1      7.1900000000000048      52.127500000000012      50.330000000000013
   164   1      7.1900000000000048      53.925000000000011      48.532500000000013
   165   1      5.3924999999999992      52.127500000000012      52.127500000000012
   166   1      5.3924999999999992      53.925000000000011      53.925000000000011
   167   1      7.1900000000000048      52.127500000000012      53.925000000000011
   168   1      7.1900000000000048      53.925000000000011      52.127500000000012
   169   1      5.3924999999999992      52.127500000000012      55.722500000000011
   170   1      5.3924999999999992      53.925000000000011       57.52000000000001
   171   1      7.1900000000000048      52.127500000000012       57.52000000000001
   172   1      7.1900000000000048      53.925000000000011      55.722500000000011
   173   1      7.1900000000000048      52.127500000000012      61.115000000000009
   174   1      7.1900000000000048      53.925000000000011       59.31750000000001
   175   1      7.1900000000000048      55.722500000000011      39.545000000000002
   176   1      7.1900000000000048       57.52000000000001      37.747500000000002
   177   1      5.3924999999999992      55.722500000000011      41.342500000000001
   178   1      5.3924999999999992       57.52000000000001      43.140000000000001
   179   1      7.1900000000000048      55.722500000000011      43.140000000000001
   180   1      7.1900000000000048       57.52000000000001      41.342500000000001
   181   1      5.3924999999999992      55.722500000000011                 44.9375
   182   1      5.3924999999999992       57.52000000000001      46.734999999999999
   183   1      7.1900000000000048      55.722500000000011      46.734999999999999
   184   1      7.1900000000000048       57.52000000000001                 44.9375
   185   1      5.3924999999999992      55.722500000000011      48.532500000000013
   186   1      5.3924999999999992       57.52000000000001      50.330000000000013
   187   1      7.1900000000000048      55.722500000000011      50.330000000000013
   188   1      7.1900000000000048       57.52000000000001      48.532500000000013
   189   1      5.3924999999999992      55.722500000000011      52.127500000000012
   190   1      5.3924999999999992       57.52000000000001      53.925000000000011
   191   1      7.1900000000000048      55.722500000000011      53.925000000000011
   192   1      7.1900000000000048       57.52000000000001      52.127500000000012
   193   1      5.3924999999999992      55.722500000000011      55.722500000000011
   194   1      7.1900000000000048      55.722500000000011       57.52000000000001
   195   1      7.1900000000000048       57.52000000000001      55.722500000000011
   196   1      7.1900000000000048       57.52000000000001       59.31750000000001
   197   1      7.1900000000000048       59.31750000000001      39.545000000000002
   198   1      7.1900000000000048       59.31750000000001      43.140000000000001
   199   1      7.1900000000000048       59.31750000000001      46.734999999999999
   200   1      7.1900000000000048      61.115000000000009                 44.9375
   201   1      5.3924999999999992       59.31750000000001      48.532500000000013
   202   1      7.1900000000000048       59.31750000000001      50.330000000000013
   203   1      7.1900000000000048      61.115000000000009      48.532500000000013
   204   1      7.1900000000000048       59.31750000000001      53.925000000000011
   205   1      7.1900000000000048      61.115000000000009      52.127500000000012
   206   1      7.1900000000000048       59.31750000000001       57.52000000000001
   207   1      10.785000000000005      28.760000000000005      48.532500000000013
   208   1      10.785000000000005      32.355000000000011      37.747500000000002
   209   1      10.785000000000005      30.557500000000008      43.140000000000001
   210   1      10.785000000000005      32.355000000000011      41.342500000000001
   211   1       8.987500000000006      32.355000000000011      46.734999999999999
   212   1      10.785000000000005      30.557500000000008      46.734999999999999
   213   1      10.785000000000005      32.355000000000011                 44.9375
   214   1       8.987500000000006      32.355000000000011      50.330000000000013
   215   1      10.785000000000005      30.557500000000008      50.330000000000013
   216   1      10.785000000000005      32.355000000000011      48.532500000000013
   217   1      10.785000000000005      30.557500000000008      53.925000000000011
   218   1      10.785000000000005      32.355000000000011      52.127500000000012
   219   1      10.785000000000005      32.355000000000011      55.722500000000011
   220   1      10.785000000000005      32.355000000000011       59.31750000000001
   221   1       8.987500000000006      35.950000000000003      35.950000000000003
   222   1      10.785000000000005      34.152500000000003      35.950000000000003
   223   1      10.785000000000005      35.950000000000003      34.152500000000003
   224   1       8.987500000000006      35.950000000000003      39.545000000000002
   225   1      10.785000000000005      34.152500000000003      39.545000000000002
   226   1      10.785000000000005      35.950000000000003      37.747500000000002
   227   1       8.987500000000006      34.152500000000003      41.342500000000001
   228   1       8.987500000000006      35.950000000000003      43.140000000000001
   229   1      10.785000000000005      34.152500000000003      43.140000000000001
   230   1      10.785000000000005      35.950000000000003      41.342500000000001
   231   1       8.987500000000006      34.152500000000003                 44.9375
   232   1       8.987500000000006      35.950000000000003      46.734999999999999
   233   1      10.785000000000005      34.152500000000003      46.734999999999999
   234   1      10.785000000000005      35.950000000000003                 44.9375
   235   1       8.987500000000006      34.152500000000003      48.532500000000013
   236   1       8.987500000000006      35.950000000000003      50.330000000000013
   237   1      10.785000000000005      34.152500000000003      50.330000000000013
   238   1      10.785000000000005      35.950000000000003      48.532500000000013
   239   1       8.987500000000006      34.152500000000003      52.127500000000012
   240   1       8.987500000000006      35.950000000000003      53.925000000000011
   241   1      10.785000000000005      34.152500000000003      53.925000000000011
   242   1      10.785000000000005      35.950000000000003      52.127500000000012
   243   1       8.987500000000006      34.152500000000003      55.722500000000011
   244   1       8.987500000000006      35.950000000000003       57.52000000000001
   245   1      10.785000000000005      34.152500000000003       57.52000000000001
   246   1      10.785000000000005      35.950000000000003      55.722500000000011
   247   1       8.987500000000006      35.950000000000003      61.115000000000009
   248   1      10.785000000000005      34.152500000000003      61.115000000000009
   249   1      10.785000000000005      35.950000000000003       59.31750000000001
   250   1      10.785000000000005      35.950000000000003      62.912500000000016
   251   1      10.785000000000005      37.747500000000002      32.355000000000011
   252   1       8.987500000000006      39.545000000000002      35.950000000000003
   253   1      10.785000000000005      37.747500000000002      35.950000000000003
   254   1      10.785000000000005      39.545000000000002      34.152500000000003
   255   1       8.987500000000006      37.747500000000002      37.747500000000002
   256   1       8.987500000000006      39.545000000000002      39.545000000000002
   257   1      10.785000000000005      37.747500000000002      39.545000000000002
   258   1      10.785000000000005      39.545000000000002      37.747500000000002
   259   1       8.987500000000006      37.747500000000002      41.342500000000001
   260   1       8.987500000000006      39.545000000000002      43.140000000000001
   261   1      10.785000000000005      37.747500000000002      43.140000000000001
   262   1      10.785000000000005      39.545000000000002      41.342500000000001
   263   1       8.987500000000006      37.747500000000002                 44.9375
   264   1       8.987500000000006      39.545000000000002      46.734999999999999
   265   1      10.785000000000005      37.747500000000002      46.734999999999999
   266   1      10.785000000000005      39.545000000000002                 44.9375
   267   1       8.987500000000006      37.747500000000002      48.532500000000013
   268   1       8.987500000000006      39.545000000000002      50.330000000000013
   269   1      10.785000000000005      37.747500000000002      50.330000000000013
   270   1      10.785000000000005      39.545000000000002      48.532500000000013
   271   1       8.987500000000006      37.747500000000002      52.127500000000012
   272   1       8.987500000000006      39.545000000000002      53.925000000000011
   273   1      10.785000000000005      37.747500000000002      53.925000000000011
   274   1      10.785000000000005      39.545000000000002      52.127500000000012
   275   1       8.987500000000006      37.747500000000002      55.722500000000011
   276   1       8.987500000000006      39.545000000000002       57.52000000000001
   277   1      10.785000000000005      37.747500000000002       57.52000000000001
   278   1      10.785000000000005      39.545000000000002      55.722500000000011
   279   1       8.987500000000006      37.747500000000002       59.31750000000001
   280   1       8.987500000000006      39.545000000000002      61.115000000000009
   281   1      10.785000000000005      37.747500000000002      61.115000000000009
   282   1      10.785000000000005      39.545000000000002       59.31750000000001
   283   1      10.785000000000005      37.747500000000002      64.710000000000022
   284   1      10.785000000000005      39.545000000000002      62.912500000000016
   285   1      10.785000000000005      41.342500000000001      32.355000000000011
   286   1      10.785000000000005      43.140000000000001      30.557500000000008
   287   1       8.987500000000006      41.342500000000001      34.152500000000003
   288   1       8.987500000000006      43.140000000000001      35.950000000000003
   289   1      10.785000000000005      41.342500000000001      35.950000000000003
   290   1      10.785000000000005      43.140000000000001      34.152500000000003
   291   1       8.987500000000006      41.342500000000001      37.747500000000002
   292   1       8.987500000000006      43.140000000000001      39.545000000000002
   293   1      10.785000000000005      41.342500000000001      39.545000000000002
   294   1      10.785000000000005      43.140000000000001      37.747500000000002
   295   1       8.987500000000006      41.342500000000001      41.342500000000001
   296   1       8.987500000000006      43.140000000000001      43.140000000000001
   297   1      10.785000000000005      41.342500000000001      43.140000000000001
   298   1      10.785000000000005      43.140000000000001      41.342500000000001
   299   1       8.987500000000006      41.342500000000001                 44.9375
   300   1       8.987500000000006      43.140000000000001      46.734999999999999
   301   1      10.785000000000005      41.342500000000001      46.734999999999999
   302   1      10.785000000000005      43.140000000000001                 44.9375
   303   1       8.987500000000006      41.342500000000001      48.532500000000013
   304   1       8.987500000000006      43.140000000000001      50.330000000000013
   305   1      10.785000000000005      41.342500000000001      50.330000000000013
   306   1      10.785000000000005      43.140000000000001      48.532500000000013
   307   1       8.987500000000006      41.342500000000001      52.127500000000012
   308   1       8.987500000000006      43.140000000000001      53.925000000000011
   309   1      10.785000000000005      41.342500000000001      53.925000000000011
   310   1      10.785000000000005      43.140000000000001      52.127500000000012
   311   1       8.987500000000006      41.342500000000001      55.722500000000011
   312   1       8.987500000000006      43.140000000000001       57.52000000000001
   313   1      10.785000000000005      41.342500000000001       57.52000000000001
   314   1      10.785000000000005      43.140000000000001      55.722500000000011
   315   1       8.987500000000006      41.342500000000001       59.31750000000001
   316   1       8.987500000000006      43.140000000000001      61.115000000000009
   317   1      10.785000000000005      41.342500000000001      61.115000000000009
   318   1      10.785000000000005      43.140000000000001       59.31750000000001
   319   1       8.987500000000006      41.342500000000001      62.912500000000016
   320   1      10.785000000000005      41.342500000000001      64.710000000000022
   321   1      10.785000000000005      43.140000000000001      62.912500000000016
   322   1      10.785000000000005      43.140000000000001      66.507500000000022
   323   1       8.987500000000006      46.734999999999999      32.355000000000011
   324   1      10.785000000000005                 44.9375      32.355000000000011
   325   1      10.785000000000005      46.734999999999999      30.557500000000008
   326   1       8.987500000000006                 44.9375      34.152500000000003
   327   1       8.987500000000006      46.734999999999999      35.950000000000003
   328   1      10.785000000000005                 44.9375      35.950000000000003
   329   1      10.785000000000005      46.734999999999999      34.152500000000003
   330   1       8.987500000000006                 44.9375      37.747500000000002
   331   1       8.987500000000006      46.734999999999999      39.545000000000002
   332   1      10.785000000000005                 44.9375      39.545000000000002
   333   1      10.785000000000005      46.734999999999999      37.747500000000002
   334   1       8.987500000000006                 44.9375      41.342500000000001
   335   1       8.987500000000006      46.734999999999999      43.140000000000001
   336   1      10.785000000000005                 44.9375      43.140000000000001
   337   1      10.785000000000005      46.734999999999999      41.342500000000001
   338   1       8.987500000000006                 44.9375                 44.9375
   339   1       8.987500000000006      46.734999999999999      46.734999999999999
   340   1      10.785000000000005                 44.9375      46.734999999999999
   341   1      10.785000000000005      46.734999999999999                 44.9375
   342   1       8.987500000000006                 44.9375      48.532500000000013
   343   1       8.987500000000006      46.734999999999999      50.330000000000013
   344   1      10.785000000000005                 44.9375      50.330000000000013
   345   1      10.785000000000005      46.734999999999999      48.532500000000013
   346   1       8.987500000000006                 44.9375      52.127500000000012
   347   1       8.987500000000006      46.734999999999999      53.925000000000011
   348   1      10.785000000000005                 44.9375      53.925000000000011
   349   1      10.785000000000005      46.734999999999999      52.127500000000012
   350   1       8.987500000000006                 44.9375      55.722500000000011
   351   1       8.987500000000006      46.734999999999999       57.52000000000001
   352   1      10.785000000000005                 44.9375       57.52000000000001
   353   1      10.785000000000005      46.734999999999999      55.722500000000011
   354   1       8.987500000000006                 44.9375       59.31750000000001
   355   1       8.987500000000006      46.734999999999999      61.115000000000009
   356   1      10.785000000000005                 44.9375      61.115000000000009
   357   1      10.785000000000005      46.734999999999999       59.31750000000001
   358   1       8.987500000000006                 44.9375      62.912500000000016