model_files/Fe/Fe_30000/Fe_544/data.Fe_544_bcc_30001 (written by ASE) 

30001 	 atoms 
1  atom types
0.0                      93  xlo xhi
0.0                      93  ylo yhi
0.0                      93  zlo zhi


Atoms 

     1   1      1.4350000000000096      44.485000000000014      45.920000000000009
     2   1      1.4350000000000096      45.920000000000009      44.485000000000014
     3   1  7.1054273576010019e-15      45.920000000000009      45.920000000000009
     4   1      1.4350000000000096      45.920000000000009      47.355000000000004
     5   1      1.4350000000000096      47.355000000000004      45.920000000000009
     6   1      4.3050000000000068      41.615000000000016      45.920000000000009
     7   1      2.8700000000000121      44.485000000000014      44.485000000000014
     8   1      4.3050000000000068      43.050000000000011      44.485000000000014
     9   1      4.3050000000000068      44.485000000000014      43.050000000000011
    10   1      2.8700000000000121      43.050000000000011      45.920000000000009
    11   1      2.8700000000000121      44.485000000000014      47.355000000000004
    12   1      4.3050000000000068      43.050000000000011      47.355000000000004
    13   1      4.3050000000000068      44.485000000000014      45.920000000000009
    14   1      4.3050000000000068      44.485000000000014      48.790000000000013
    15   1      4.3050000000000068      45.920000000000009      41.615000000000016
    16   1      2.8700000000000121      45.920000000000009      43.050000000000011
    17   1      2.8700000000000121      47.355000000000004      44.485000000000014
    18   1      4.3050000000000068      45.920000000000009      44.485000000000014
    19   1      4.3050000000000068      47.355000000000004      43.050000000000011
    20   1      2.8700000000000121      45.920000000000009      45.920000000000009
    21   1      2.8700000000000121      47.355000000000004      47.355000000000004
    22   1      4.3050000000000068      45.920000000000009      47.355000000000004
    23   1      4.3050000000000068      47.355000000000004      45.920000000000009
    24   1      2.8700000000000121      45.920000000000009      48.790000000000013
    25   1      4.3050000000000068      45.920000000000009      50.225000000000009
    26   1      4.3050000000000068      47.355000000000004      48.790000000000013
    27   1      4.3050000000000068      48.790000000000013      44.485000000000014
    28   1      2.8700000000000121      48.790000000000013      45.920000000000009
    29   1      4.3050000000000068      48.790000000000013      47.355000000000004
    30   1      4.3050000000000068      50.225000000000009      45.920000000000009
    31   1      7.1750000000000114      35.875000000000007      45.920000000000009
    32   1      7.1750000000000114      37.310000000000002      44.485000000000014
    33   1      7.1750000000000114      38.745000000000005      43.050000000000011
    34   1      7.1750000000000114      37.310000000000002      47.355000000000004
    35   1      7.1750000000000114      38.745000000000005      45.920000000000009
    36   1      7.1750000000000114      38.745000000000005      48.790000000000013
    37   1      7.1750000000000114      40.180000000000014      41.615000000000016
    38   1      7.1750000000000114      41.615000000000016      40.180000000000014
    39   1        5.74000000000001      41.615000000000016      44.485000000000014
    40   1      7.1750000000000114      40.180000000000014      44.485000000000014
    41   1      7.1750000000000114      41.615000000000016      43.050000000000011
    42   1        5.74000000000001      40.180000000000014      45.920000000000009
    43   1        5.74000000000001      41.615000000000016      47.355000000000004
    44   1      7.1750000000000114      40.180000000000014      47.355000000000004
    45   1      7.1750000000000114      41.615000000000016      45.920000000000009
    46   1      7.1750000000000114      40.180000000000014      50.225000000000009
    47   1      7.1750000000000114      41.615000000000016      48.790000000000013
    48   1      7.1750000000000114      41.615000000000016      51.660000000000004
    49   1      7.1750000000000114      43.050000000000011      38.745000000000005
    50   1      7.1750000000000114      44.485000000000014      37.310000000000002
    51   1        5.74000000000001      44.485000000000014      41.615000000000016
    52   1      7.1750000000000114      43.050000000000011      41.615000000000016
    53   1      7.1750000000000114      44.485000000000014      40.180000000000014
    54   1        5.74000000000001      43.050000000000011      43.050000000000011
    55   1        5.74000000000001      44.485000000000014      44.485000000000014
    56   1      7.1750000000000114      43.050000000000011      44.485000000000014
    57   1      7.1750000000000114      44.485000000000014      43.050000000000011
    58   1        5.74000000000001      43.050000000000011      45.920000000000009
    59   1        5.74000000000001      44.485000000000014      47.355000000000004
    60   1      7.1750000000000114      43.050000000000011      47.355000000000004
    61   1      7.1750000000000114      44.485000000000014      45.920000000000009
    62   1        5.74000000000001      43.050000000000011      48.790000000000013
    63   1        5.74000000000001      44.485000000000014      50.225000000000009
    64   1      7.1750000000000114      43.050000000000011      50.225000000000009
    65   1      7.1750000000000114      44.485000000000014      48.790000000000013
    66   1      7.1750000000000114      43.050000000000011      53.095000000000013
    67   1      7.1750000000000114      44.485000000000014      51.660000000000004
    68   1      7.1750000000000114      44.485000000000014      54.530000000000008
    69   1      7.1750000000000114      45.920000000000009      35.875000000000007
    70   1      7.1750000000000114      45.920000000000009      38.745000000000005
    71   1      7.1750000000000114      47.355000000000004      37.310000000000002
    72   1        5.74000000000001      45.920000000000009      40.180000000000014
    73   1        5.74000000000001      47.355000000000004      41.615000000000016
    74   1      7.1750000000000114      45.920000000000009      41.615000000000016
    75   1      7.1750000000000114      47.355000000000004      40.180000000000014
    76   1        5.74000000000001      45.920000000000009      43.050000000000011
    77   1        5.74000000000001      47.355000000000004      44.485000000000014
    78   1      7.1750000000000114      45.920000000000009      44.485000000000014
    79   1      7.1750000000000114      47.355000000000004      43.050000000000011
    80   1        5.74000000000001      45.920000000000009      45.920000000000009
    81   1        5.74000000000001      47.355000000000004      47.355000000000004
    82   1      7.1750000000000114      45.920000000000009      47.355000000000004
    83   1      7.1750000000000114      47.355000000000004      45.920000000000009
    84   1        5.74000000000001      45.920000000000009      48.790000000000013
    85   1        5.74000000000001      47.355000000000004      50.225000000000009
    86   1      7.1750000000000114      45.920000000000009      50.225000000000009
    87   1      7.1750000000000114      47.355000000000004      48.790000000000013
    88   1        5.74000000000001      45.920000000000009      51.660000000000004
    89   1      7.1750000000000114      45.920000000000009      53.095000000000013
    90   1      7.1750000000000114      47.355000000000004      51.660000000000004
    91   1      7.1750000000000114      45.920000000000009      55.965000000000003
    92   1      7.1750000000000114      47.355000000000004      54.530000000000008
    93   1      7.1750000000000114      48.790000000000013      38.745000000000005
    94   1      7.1750000000000114      48.790000000000013      41.615000000000016
    95   1      7.1750000000000114      50.225000000000009      40.180000000000014
    96   1        5.74000000000001      48.790000000000013      43.050000000000011
    97   1        5.74000000000001      50.225000000000009      44.485000000000014
    98   1      7.1750000000000114      48.790000000000013      44.485000000000014
    99   1      7.1750000000000114      50.225000000000009      43.050000000000011
   100   1        5.74000000000001      48.790000000000013      45.920000000000009
   101   1        5.74000000000001      50.225000000000009      47.355000000000004
   102   1      7.1750000000000114      48.790000000000013      47.355000000000004
   103   1      7.1750000000000114      50.225000000000009      45.920000000000009
   104   1        5.74000000000001      48.790000000000013      48.790000000000013
   105   1      7.1750000000000114      48.790000000000013      50.225000000000009
   106   1      7.1750000000000114      50.225000000000009      48.790000000000013
   107   1      7.1750000000000114      48.790000000000013      53.095000000000013
   108   1      7.1750000000000114      50.225000000000009      51.660000000000004
   109   1      7.1750000000000114      51.660000000000004      41.615000000000016
   110   1      7.1750000000000114      51.660000000000004      44.485000000000014
   111   1      7.1750000000000114      53.095000000000013      43.050000000000011
   112   1        5.74000000000001      51.660000000000004      45.920000000000009
   113   1      7.1750000000000114      51.660000000000004      47.355000000000004
   114   1      7.1750000000000114      53.095000000000013      45.920000000000009
   115   1      7.1750000000000114      51.660000000000004      50.225000000000009
   116   1      7.1750000000000114      53.095000000000013      48.790000000000013
   117   1      7.1750000000000114      54.530000000000008      44.485000000000014
   118   1      7.1750000000000114      54.530000000000008      47.355000000000004
   119   1      7.1750000000000114      55.965000000000003      45.920000000000009
   120   1      10.045000000000009       33.00500000000001      45.920000000000009
   121   1      8.6100000000000065      35.875000000000007      44.485000000000014
   122   1      10.045000000000009      34.440000000000012      44.485000000000014
   123   1      10.045000000000009      35.875000000000007      43.050000000000011
   124   1      8.6100000000000065      34.440000000000012      45.920000000000009
   125   1      8.6100000000000065      35.875000000000007      47.355000000000004
   126   1      10.045000000000009      34.440000000000012      47.355000000000004
   127   1      10.045000000000009      35.875000000000007      45.920000000000009
   128   1      10.045000000000009      35.875000000000007      48.790000000000013
   129   1      8.6100000000000065      38.745000000000005      41.615000000000016
   130   1      10.045000000000009      37.310000000000002      41.615000000000016
   131   1      10.045000000000009      38.745000000000005      40.180000000000014
   132   1      8.6100000000000065      37.310000000000002      43.050000000000011
   133   1      8.6100000000000065      38.745000000000005      44.485000000000014
   134   1      10.045000000000009      37.310000000000002      44.485000000000014
   135   1      10.045000000000009      38.745000000000005      43.050000000000011
   136   1      8.6100000000000065      37.310000000000002      45.920000000000009
   137   1      8.6100000000000065      38.745000000000005      47.355000000000004
   138   1      10.045000000000009      37.310000000000002      47.355000000000004
   139   1      10.045000000000009      38.745000000000005      45.920000000000009
   140   1      8.6100000000000065      37.310000000000002      48.790000000000013
   141   1      8.6100000000000065      38.745000000000005      50.225000000000009
   142   1      10.045000000000009      37.310000000000002      50.225000000000009
   143   1      10.045000000000009      38.745000000000005      48.790000000000013
   144   1      10.045000000000009      38.745000000000005      51.660000000000004
   145   1      8.6100000000000065      41.615000000000016      38.745000000000005
   146   1      10.045000000000009      40.180000000000014      38.745000000000005
   147   1      10.045000000000009      41.615000000000016      37.310000000000002
   148   1      8.6100000000000065      40.180000000000014      40.180000000000014
   149   1      8.6100000000000065      41.615000000000016      41.615000000000016
   150   1      10.045000000000009      40.180000000000014      41.615000000000016
   151   1      10.045000000000009      41.615000000000016      40.180000000000014
   152   1      8.6100000000000065      40.180000000000014      43.050000000000011
   153   1      8.6100000000000065      41.615000000000016      44.485000000000014
   154   1      10.045000000000009      40.180000000000014      44.485000000000014
   155   1      10.045000000000009      41.615000000000016      43.050000000000011
   156   1      8.6100000000000065      40.180000000000014      45.920000000000009
   157   1      8.6100000000000065      41.615000000000016      47.355000000000004
   158   1      10.045000000000009      40.180000000000014      47.355000000000004
   159   1      10.045000000000009      41.615000000000016      45.920000000000009
   160   1      8.6100000000000065      40.180000000000014      48.790000000000013
   161   1      8.6100000000000065      41.615000000000016      50.225000000000009
   162   1      10.045000000000009      40.180000000000014      50.225000000000009
   163   1      10.045000000000009      41.615000000000016      48.790000000000013
   164   1      8.6100000000000065      40.180000000000014      51.660000000000004
   165   1      8.6100000000000065      41.615000000000016      53.095000000000013
   166   1      10.045000000000009      40.180000000000014      53.095000000000013
   167   1      10.045000000000009      41.615000000000016      51.660000000000004
   168   1      10.045000000000009      41.615000000000016      54.530000000000008
   169   1      8.6100000000000065      44.485000000000014      35.875000000000007
   170   1      10.045000000000009      43.050000000000011      35.875000000000007
   171   1      10.045000000000009      44.485000000000014      34.440000000000012
   172   1      8.6100000000000065      43.050000000000011      37.310000000000002
   173   1      8.6100000000000065      44.485000000000014      38.745000000000005
   174   1      10.045000000000009      43.050000000000011      38.745000000000005
   175   1      10.045000000000009      44.485000000000014      37.310000000000002
   176   1      8.6100000000000065      43.050000000000011      40.180000000000014
   177   1      8.6100000000000065      44.485000000000014      41.615000000000016
   178   1      10.045000000000009      43.050000000000011      41.615000000000016
   179   1      10.045000000000009      44.485000000000014      40.180000000000014
   180   1      8.6100000000000065      43.050000000000011      43.050000000000011
   181   1      8.6100000000000065      44.485000000000014      44.485000000000014
   182   1      10.045000000000009      43.050000000000011      44.485000000000014
   183   1      10.045000000000009      44.485000000000014      43.050000000000011
   184   1      8.6100000000000065      43.050000000000011      45.920000000000009
   185   1      8.6100000000000065      44.485000000000014      47.355000000000004
   186   1      10.045000000000009      43.050000000000011      47.355000000000004
   187   1      10.045000000000009      44.485000000000014      45.920000000000009
   188   1      8.6100000000000065      43.050000000000011      48.790000000000013
   189   1      8.6100000000000065      44.485000000000014      50.225000000000009
   190   1      10.045000000000009      43.050000000000011      50.225000000000009
   191   1      10.045000000000009      44.485000000000014      48.790000000000013
   192   1      8.6100000000000065      43.050000000000011      51.660000000000004
   193   1      8.6100000000000065      44.485000000000014      53.095000000000013
   194   1      10.045000000000009      43.050000000000011      53.095000000000013
   195   1      10.045000000000009      44.485000000000014      51.660000000000004
   196   1      8.6100000000000065      43.050000000000011      54.530000000000008
   197   1      8.6100000000000065      44.485000000000014      55.965000000000003
   198   1      10.045000000000009      43.050000000000011      55.965000000000003
   199   1      10.045000000000009      44.485000000000014      54.530000000000008
   200   1      10.045000000000009      44.485000000000014      57.400000000000006
   201   1      10.045000000000009      45.920000000000009       33.00500000000001
   202   1      8.6100000000000065      45.920000000000009      34.440000000000012
   203   1      8.6100000000000065      47.355000000000004      35.875000000000007
   204   1      10.045000000000009      45.920000000000009      35.875000000000007
   205   1      10.045000000000009      47.355000000000004      34.440000000000012
   206   1      8.6100000000000065      45.920000000000009      37.310000000000002
   207   1      8.6100000000000065      47.355000000000004      38.745000000000005
   208   1      10.045000000000009      45.920000000000009      38.745000000000005
   209   1      10.045000000000009      47.355000000000004      37.310000000000002
   210   1      8.6100000000000065      45.920000000000009      40.180000000000014
   211   1      8.6100000000000065      47.355000000000004      41.615000000000016
   212   1      10.045000000000009      45.920000000000009      41.615000000000016
   213   1      10.045000000000009      47.355000000000004      40.180000000000014
   214   1      8.6100000000000065      45.920000000000009      43.050000000000011
   215   1      8.6100000000000065      47.355000000000004      44.485000000000014
   216   1      10.045000000000009      45.920000000000009      44.485000000000014
   217   1      10.045000000000009      47.355000000000004      43.050000000000011
   218   1      8.6100000000000065      45.920000000000009      45.920000000000009
   219   1      8.6100000000000065      47.355000000000004      47.355000000000004
   220   1      10.045000000000009      45.920000000000009      47.355000000000004
   221   1      10.045000000000009      47.355000000000004      45.920000000000009
   222   1      8.6100000000000065      45.920000000000009      48.790000000000013
   223   1      8.6100000000000065      47.355000000000004      50.225000000000009
   224   1      10.045000000000009      45.920000000000009      50.225000000000009
   225   1      10.045000000000009      47.355000000000004      48.790000000000013
   226   1      8.6100000000000065      45.920000000000009      51.660000000000004
   227   1      8.6100000000000065      47.355000000000004      53.095000000000013
   228   1      10.045000000000009      45.920000000000009      53.095000000000013
   229   1      10.045000000000009      47.355000000000004      51.660000000000004
   230   1      8.6100000000000065      45.920000000000009      54.530000000000008
   231   1      8.6100000000000065      47.355000000000004      55.965000000000003
   232   1      10.045000000000009      45.920000000000009      55.965000000000003
   233   1      10.045000000000009      47.355000000000004      54.530000000000008
   234   1      8.6100000000000065      45.920000000000009      57.400000000000006
   235   1      10.045000000000009      45.920000000000009      58.835000000000015
   236   1      10.045000000000009      47.355000000000004      57.400000000000006
   237   1      10.045000000000009      48.790000000000013      35.875000000000007
   238   1      8.6100000000000065      48.790000000000013      37.310000000000002
   239   1      8.6100000000000065      50.225000000000009      38.745000000000005
   240   1      10.045000000000009      48.790000000000013      38.745000000000005
   241   1      10.045000000000009      50.225000000000009      37.310000000000002
   242   1      8.6100000000000065      48.790000000000013      40.180000000000014
   243   1      8.6100000000000065      50.225000000000009      41.615000000000016
   244   1      10.045000000000009      48.790000000000013      41.615000000000016
   245   1      10.045000000000009      50.225000000000009      40.180000000000014
   246   1      8.6100000000000065      48.790000000000013      43.050000000000011
   247   1      8.6100000000000065      50.225000000000009      44.485000000000014
   248   1      10.045000000000009      48.790000000000013      44.485000000000014
   249   1      10.045000000000009      50.225000000000009      43.050000000000011
   250   1      8.6100000000000065      48.790000000000013      45.920000000000009
   251   1      8.6100000000000065      50.225000000000009      47.355000000000004
   252   1      10.045000000000009      48.790000000000013      47.355000000000004
   253   1      10.045000000000009      50.225000000000009      45.920000000000009
   254   1      8.6100000000000065      48.790000000000013      48.790000000000013
   255   1      8.6100000000000065      50.225000000000009      50.225000000000009
   256   1      10.045000000000009      48.790000000000013      50.225000000000009
   257   1      10.045000000000009      50.225000000000009      48.790000000000013
   258   1      8.6100000000000065      48.790000000000013      51.660000000000004
   259   1      8.6100000000000065      50.225000000000009      53.095000000000013
   260   1      10.045000000000009      48.790000000000013      53.095000000000013
   261   1      10.045000000000009      50.225000000000009      51.660000000000004
   262   1      8.6100000000000065      48.790000000000013      54.530000000000008
   263   1      10.045000000000009      48.790000000000013      55.965000000000003
   264   1      10.045000000000009      50.225000000000009      54.530000000000008
   265   1      10.045000000000009      51.660000000000004      38.745000000000005
   266   1      8.6100000000000065      51.660000000000004      40.180000000000014
   267   1      8.6100000000000065      53.095000000000013      41.615000000000016
   268   1      10.045000000000009      51.660000000000004      41.615000000000016
   269   1      10.045000000000009      53.095000000000013      40.180000000000014
   270   1      8.6100000000000065      51.660000000000004      43.050000000000011
   271   1      8.6100000000000065      53.095000000000013      44.485000000000014
   272   1      10.045000000000009      51.660000000000004      44.485000000000014
   273   1      10.045000000000009      53.095000000000013      43.050000000000011
   274   1      8.6100000000000065      51.660000000000004      45.920000000000009
   275   1      8.6100000000000065      53.095000000000013      47.355000000000004
   276   1      10.045000000000009      51.660000000000004      47.355000000000004
   277   1      10.045000000000009      53.095000000000013      45.920000000000009
   278   1      8.6100000000000065      51.660000000000004      48.790000000000013
   279   1      8.6100000000000065      53.095000000000013      50.225000000000009
   280   1      10.045000000000009      51.660000000000004      50.225000000000009
   281   1      10.045000000000009      53.095000000000013      48.790000000000013
   282   1      8.6100000000000065      51.660000000000004      51.660000000000004
   283   1      10.045000000000009      51.660000000000004      53.095000000000013
   284   1      10.045000000000009      53.095000000000013      51.660000000000004
   285   1      10.045000000000009      54.530000000000008      41.615000000000016
   286   1      8.6100000000000065      54.530000000000008      43.050000000000011
   287   1      8.6100000000000065      55.965000000000003      44.485000000000014
   288   1      10.045000000000009      54.530000000000008      44.485000000000014
   289   1      10.045000000000009      55.965000000000003      43.050000000000011
   290   1      8.6100000000000065      54.530000000000008      45.920000000000009
   291   1      8.6100000000000065      55.965000000000003      47.355000000000004
   292   1      10.045000000000009      54.530000000000008      47.355000000000004
   293   1      10.045000000000009      55.965000000000003      45.920000000000009
   294   1      8.6100000000000065      54.530000000000008      48.790000000000013
   295   1      10.045000000000009      54.530000000000008      50.225000000000009
   296   1      10.045000000000009      55.965000000000003      48.790000000000013
   297   1      10.045000000000009      57.400000000000006      44.485000000000014
   298   1      8.6100000000000065      57.400000000000006      45.920000000000009
   299   1      10.045000000000009      57.400000000000006      47.355000000000004
   300   1      10.045000000000009      58.835000000000015      45.920000000000009
   301   1      12.915000000000006      30.135000000000005      45.920000000000009
   302   1      11.480000000000006       33.00500000000001      44.485000000000014
   303   1      12.915000000000006      31.570000000000011      44.485000000000014
   304   1      12.915000000000006       33.00500000000001      43.050000000000011
   305   1      11.480000000000006      31.570000000000011      45.920000000000009
   306   1      11.480000000000006       33.00500000000001      47.355000000000004
   307   1      12.915000000000006      31.570000000000011      47.355000000000004
   308   1      12.915000000000006       33.00500000000001      45.920000000000009
   309   1      12.915000000000006       33.00500000000001      48.790000000000013
   310   1      11.480000000000006      35.875000000000007      41.615000000000016
   311   1      12.915000000000006      34.440000000000012      41.615000000000016
   312   1      12.915000000000006      35.875000000000007      40.180000000000014
   313   1      11.480000000000006      34.440000000000012      43.050000000000011
   314   1      11.480000000000006      35.875000000000007      44.485000000000014
   315   1      12.915000000000006      34.440000000000012      44.485000000000014
   316   1      12.915000000000006      35.875000000000007      43.050000000000011
   317   1      11.480000000000006      34.440000000000012      45.920000000000009
   318   1      11.480000000000006      35.875000000000007      47.355000000000004
   319   1      12.915000000000006      34.440000000000012      47.355000000000004
   320   1      12.915000000000006      35.875000000000007      45.920000000000009
   321   1      11.480000000000006      34.440000000000012      48.790000000000013
   322   1      11.480000000000006      35.875000000000007      50.225000000000009
   323   1      12.915000000000006      34.440000000000012      50.225000000000009
   324   1      12.915000000000006      35.875000000000007      48.790000000000013
   325   1      12.915000000000006      35.875000000000007      51.660000000000004
   326   1      11.480000000000006      38.745000000000005      38.745000000000005
   327   1      12.915000000000006      37.310000000000002      38.745000000000005
   328   1      12.915000000000006      38.745000000000005      37.310000000000002
   329   1      11.480000000000006      37.310000000000002      40.180000000000014
   330   1      11.480000000000006      38.745000000000005      41.615000000000016
   331   1      12.915000000000006      37.310000000000002      41.615000000000016
   332   1      12.915000000000006      38.745000000000005      40.180000000000014
   333   1      11.480000000000006      37.310000000000002      43.050000000000011
   334   1      11.480000000000006      38.745000000000005      44.485000000000014
   335   1      12.915000000000006      37.310000000000002      44.485000000000014
   336   1      12.915000000000006      38.745000000000005      43.050000000000011
   337   1      11.480000000000006      37.310000000000002      45.920000000000009
   338   1      11.480000000000006      38.745000000000005      47.355000000000004
   339   1      12.915000000000006      37.310000000000002      47.355000000000004
   340   1      12.915000000000006      38.745000000000005      45.920000000000009
   341   1      11.480000000000006      37.310000000000002      48.790000000000013
   342   1      11.480000000000006      38.745000000000005      50.225000000000009
   343   1      12.915000000000006      37.310000000000002      50.225000000000009
   344   1      12.915000000000006      38.745000000000005      48.790000000000013
   345   1      11.480000000000006      37.310000000000002      51.660000000000004
   346   1      11.480000000000006      38.745000000000005      53.095000000000013
   347   1      12.915000000000006      37.310000000000002      53.095000000000013
   348   1      12.915000000000006      38.745000000000005      51.660000000000004
   349   1      12.915000000000006      38.745000000000005      54.530000000000008
   350   1      11.480000000000006      41.615000000000016      35.875000000000007
   351   1      12.915000000000006      40.180000000000014      35.875000000000007
   352   1      12.915000000000006      41.615000000000016      34.440000000000012
   353   1      11.480000000000006      40.180000000000014      37.310000000000002
   354   1      11.480000000000006      41.615000000000016      38.745000000000005
   355   1      12.915000000000006      40.180000000000014      38.745000000000005
   356   1      12.915000000000006      41.615000000000016      37.310000000000002
   357   1      11.480000000000006      40.180000000000014      40.180000000000014
   358   1      11.480000000000006      41.615000000000016      41.615000000000016