LAMMPS data file via write_data, version 30 Nov 2020, timestep = 0

29683 atoms
5 atom types

0 123 xlo xhi
0 123 ylo yhi
0 123 zlo zhi

Masses

1 58.7
2 55.8
3 52
4 59
5 63

Atoms # atomic

1 3 1.785000000000004 58.905 60.690000000000005 0 0 0
2 2 1.785000000000004 60.690000000000005 58.905 0 0 0
3 3 7.105427357601002e-15 60.690000000000005 60.690000000000005 0 0 0
6 3 5.355000000000005 55.33500000000001 60.690000000000005 0 0 0
7 3 3.570000000000008 58.905 58.905 0 0 0
8 1 5.355000000000005 57.12000000000001 58.905 0 0 0
9 4 5.355000000000005 58.905 57.12000000000001 0 0 0
10 2 3.570000000000008 57.12000000000001 60.690000000000005 0 0 0
13 1 5.355000000000005 58.905 60.690000000000005 0 0 0
15 4 5.355000000000005 60.690000000000005 55.33500000000001 0 0 0
16 1 3.570000000000008 60.690000000000005 57.12000000000001 0 0 0
18 2 5.355000000000005 60.690000000000005 58.905 0 0 0
20 4 3.570000000000008 60.690000000000005 60.690000000000005 0 0 0
31 3 8.925000000000004 51.76500000000001 60.690000000000005 0 0 0
32 3 7.140000000000008 55.33500000000001 58.905 0 0 0
33 1 8.925000000000004 53.550000000000004 58.905 0 0 0
34 1 8.925000000000004 55.33500000000001 57.12000000000001 0 0 0
35 3 7.140000000000008 53.550000000000004 60.690000000000005 0 0 0
38 3 8.925000000000004 55.33500000000001 60.690000000000005 0 0 0
40 3 7.140000000000008 58.905 55.33500000000001 0 0 0
41 1 8.925000000000004 57.12000000000001 55.33500000000001 0 0 0
42 4 8.925000000000004 58.905 53.550000000000004 0 0 0
43 3 7.140000000000008 57.12000000000001 57.12000000000001 0 0 0
44 4 7.140000000000008 58.905 58.905 0 0 0
45 3 8.925000000000004 57.12000000000001 58.905 0 0 0
46 2 8.925000000000004 58.905 57.12000000000001 0 0 0
47 4 7.140000000000008 57.12000000000001 60.690000000000005 0 0 0
50 2 8.925000000000004 58.905 60.690000000000005 0 0 0
56 2 8.925000000000004 60.690000000000005 51.76500000000001 0 0 0
57 1 7.140000000000008 60.690000000000005 53.550000000000004 0 0 0
59 1 8.925000000000004 60.690000000000005 55.33500000000001 0 0 0
61 3 7.140000000000008 60.690000000000005 57.12000000000001 0 0 0
63 4 8.925000000000004 60.690000000000005 58.905 0 0 0
65 2 7.140000000000008 60.690000000000005 60.690000000000005 0 0 0
92 5 12.495000000000006 48.19500000000001 60.690000000000005 0 0 0
93 1 10.71000000000001 51.76500000000001 58.905 0 0 0
94 3 12.495000000000006 49.98000000000001 58.905 0 0 0
95 4 12.495000000000006 51.76500000000001 57.12000000000001 0 0 0
96 5 10.71000000000001 49.98000000000001 60.690000000000005 0 0 0
99 4 12.495000000000006 51.76500000000001 60.690000000000005 0 0 0
101 1 10.71000000000001 55.33500000000001 55.33500000000001 0 0 0
102 2 12.495000000000006 53.550000000000004 55.33500000000001 0 0 0
103 5 12.495000000000006 55.33500000000001 53.550000000000004 0 0 0
104 2 10.71000000000001 53.550000000000004 57.12000000000001 0 0 0
105 4 10.71000000000001 55.33500000000001 58.905 0 0 0
106 3 12.495000000000006 53.550000000000004 58.905 0 0 0
107 5 12.495000000000006 55.33500000000001 57.12000000000001 0 0 0
108 3 10.71000000000001 53.550000000000004 60.690000000000005 0 0 0
111 5 12.495000000000006 55.33500000000001 60.690000000000005 0 0 0
117 3 10.71000000000001 58.905 51.76500000000001 0 0 0
118 3 12.495000000000006 57.12000000000001 51.76500000000001 0 0 0
119 4 12.495000000000006 58.905 49.98000000000001 0 0 0
120 5 10.71000000000001 57.12000000000001 53.550000000000004 0 0 0
121 1 10.71000000000001 58.905 55.33500000000001 0 0 0
122 5 12.495000000000006 57.12000000000001 55.33500000000001 0 0 0
123 4 12.495000000000006 58.905 53.550000000000004 0 0 0
124 1 10.71000000000001 57.12000000000001 57.12000000000001 0 0 0
125 2 10.71000000000001 58.905 58.905 0 0 0
126 5 12.495000000000006 57.12000000000001 58.905 0 0 0
127 4 12.495000000000006 58.905 57.12000000000001 0 0 0
128 2 10.71000000000001 57.12000000000001 60.690000000000005 0 0 0
131 5 12.495000000000006 58.905 60.690000000000005 0 0 0
141 3 12.495000000000006 60.690000000000005 48.19500000000001 0 0 0
142 1 10.71000000000001 60.690000000000005 49.98000000000001 0 0 0
144 3 12.495000000000006 60.690000000000005 51.76500000000001 0 0 0
146 2 10.71000000000001 60.690000000000005 53.550000000000004 0 0 0
148 2 12.495000000000006 60.690000000000005 55.33500000000001 0 0 0
150 5 10.71000000000001 60.690000000000005 57.12000000000001 0 0 0
152 3 12.495000000000006 60.690000000000005 58.905 0 0 0
154 4 10.71000000000001 60.690000000000005 60.690000000000005 0 0 0
205 1 16.06500000000001 44.62500000000001 60.690000000000005 0 0 0
206 4 14.280000000000003 48.19500000000001 58.905 0 0 0
207 4 16.06500000000001 46.410000000000004 58.905 0 0 0
208 4 16.06500000000001 48.19500000000001 57.12000000000001 0 0 0
209 2 14.280000000000003 46.410000000000004 60.690000000000005 0 0 0
212 1 16.06500000000001 48.19500000000001 60.690000000000005 0 0 0
214 4 14.280000000000003 51.76500000000001 55.33500000000001 0 0 0
215 1 16.06500000000001 49.98000000000001 55.33500000000001 0 0 0
216 5 16.06500000000001 51.76500000000001 53.550000000000004 0 0 0
217 3 14.280000000000003 49.98000000000001 57.12000000000001 0 0 0
218 2 14.280000000000003 51.76500000000001 58.905 0 0 0
219 5 16.06500000000001 49.98000000000001 58.905 0 0 0
220 5 16.06500000000001 51.76500000000001 57.12000000000001 0 0 0
221 5 14.280000000000003 49.98000000000001 60.690000000000005 0 0 0
224 4 16.06500000000001 51.76500000000001 60.690000000000005 0 0 0
230 2 14.280000000000003 55.33500000000001 51.76500000000001 0 0 0
231 3 16.06500000000001 53.550000000000004 51.76500000000001 0 0 0
232 2 16.06500000000001 55.33500000000001 49.98000000000001 0 0 0
233 2 14.280000000000003 53.550000000000004 53.550000000000004 0 0 0
234 5 14.280000000000003 55.33500000000001 55.33500000000001 0 0 0
235 1 16.06500000000001 53.550000000000004 55.33500000000001 0 0 0
236 4 16.06500000000001 55.33500000000001 53.550000000000004 0 0 0
237 3 14.280000000000003 53.550000000000004 57.12000000000001 0 0 0
238 3 14.280000000000003 55.33500000000001 58.905 0 0 0
239 4 16.06500000000001 53.550000000000004 58.905 0 0 0
240 1 16.06500000000001 55.33500000000001 57.12000000000001 0 0 0
241 4 14.280000000000003 53.550000000000004 60.690000000000005 0 0 0
244 4 16.06500000000001 55.33500000000001 60.690000000000005 0 0 0
254 5 14.280000000000003 58.905 48.19500000000001 0 0 0
255 5 16.06500000000001 57.12000000000001 48.19500000000001 0 0 0
256 3 16.06500000000001 58.905 46.410000000000004 0 0 0
257 3 14.280000000000003 57.12000000000001 49.98000000000001 0 0 0
258 5 14.280000000000003 58.905 51.76500000000001 0 0 0
259 4 16.06500000000001 57.12000000000001 51.76500000000001 0 0 0
260 4 16.06500000000001 58.905 49.98000000000001 0 0 0
261 5 14.280000000000003 57.12000000000001 53.550000000000004 0 0 0
262 3 14.280000000000003 58.905 55.33500000000001 0 0 0
263 4 16.06500000000001 57.12000000000001 55.33500000000001 0 0 0
264 4 16.06500000000001 58.905 53.550000000000004 0 0 0
265 1 14.280000000000003 57.12000000000001 57.12000000000001 0 0 0
266 5 14.280000000000003 58.905 58.905 0 0 0
267 3 16.06500000000001 57.12000000000001 58.905 0 0 0
268 1 16.06500000000001 58.905 57.12000000000001 0 0 0
269 1 14.280000000000003 57.12000000000001 60.690000000000005 0 0 0
272 4 16.06500000000001 58.905 60.690000000000005 0 0 0
286 1 16.06500000000001 60.690000000000005 44.62500000000001 0 0 0
287 1 14.280000000000003 60.690000000000005 46.410000000000004 0 0 0
289 2 16.06500000000001 60.690000000000005 48.19500000000001 0 0 0
291 3 14.280000000000003 60.690000000000005 49.98000000000001 0 0 0
293 5 16.06500000000001 60.690000000000005 51.76500000000001 0 0 0
295 4 14.280000000000003 60.690000000000005 53.550000000000004 0 0 0
297 5 16.06500000000001 60.690000000000005 55.33500000000001 0 0 0
299 4 14.280000000000003 60.690000000000005 57.12000000000001 0 0 0
301 2 16.06500000000001 60.690000000000005 58.905 0 0 0
303 4 14.280000000000003 60.690000000000005 60.690000000000005 0 0 0
386 4 19.63500000000001 41.055 60.690000000000005 0 0 0
387 4 17.85000000000001 44.62500000000001 58.905 0 0 0
388 1 19.63500000000001 42.84000000000001 58.905 0 0 0
389 5 19.63500000000001 44.62500000000001 57.12000000000001 0 0 0
390 5 17.85000000000001 42.84000000000001 60.690000000000005 0 0 0
393 4 19.63500000000001 44.62500000000001 60.690000000000005 0 0 0
395 5 17.85000000000001 48.19500000000001 55.33500000000001 0 0 0
396 3 19.63500000000001 46.410000000000004 55.33500000000001 0 0 0
397 2 19.63500000000001 48.19500000000001 53.550000000000004 0 0 0
398 2 17.85000000000001 46.410000000000004 57.12000000000001 0 0 0
399 4 17.85000000000001 48.19500000000001 58.905 0 0 0
400 3 19.63500000000001 46.410000000000004 58.905 0 0 0
401 4 19.63500000000001 48.19500000000001 57.12000000000001 0 0 0
402 2 17.85000000000001 46.410000000000004 60.690000000000005 0 0 0
405 3 19.63500000000001 48.19500000000001 60.690000000000005 0 0 0
411 5 17.85000000000001 51.76500000000001 51.76500000000001 0 0 0
412 1 19.63500000000001 49.98000000000001 51.76500000000001 0 0 0
413 4 19.63500000000001 51.76500000000001 49.98000000000001 0 0 0
414 5 17.85000000000001 49.98000000000001 53.550000000000004 0 0 0
415 5 17.85000000000001 51.76500000000001 55.33500000000001 0 0 0
416 3 19.63500000000001 49.98000000000001 55.33500000000001 0 0 0
417 2 19.63500000000001 51.76500000000001 53.550000000000004 0 0 0
418 4 17.85000000000001 49.98000000000001 57.12000000000001 0 0 0
419 3 17.85000000000001 51.76500000000001 58.905 0 0 0
420 4 19.63500000000001 49.98000000000001 58.905 0 0 0
421 2 19.63500000000001 51.76500000000001 57.12000000000001 0 0 0
422 1 17.85000000000001 49.98000000000001 60.690000000000005 0 0 0
425 2 19.63500000000001 51.76500000000001 60.690000000000005 0 0 0
435 2 17.85000000000001 55.33500000000001 48.19500000000001 0 0 0
436 3 19.63500000000001 53.550000000000004 48.19500000000001 0 0 0
437 3 19.63500000000001 55.33500000000001 46.410000000000004 0 0 0
438 4 17.85000000000001 53.550000000000004 49.98000000000001 0 0 0
439 2 17.85000000000001 55.33500000000001 51.76500000000001 0 0 0
440 2 19.63500000000001 53.550000000000004 51.76500000000001 0 0 0
441 3 19.63500000000001 55.33500000000001 49.98000000000001 0 0 0
442 5 17.85000000000001 53.550000000000004 53.550000000000004 0 0 0
443 4 17.85000000000001 55.33500000000001 55.33500000000001 0 0 0
444 4 19.63500000000001 53.550000000000004 55.33500000000001 0 0 0
445 5 19.63500000000001 55.33500000000001 53.550000000000004 0 0 0
446 5 17.85000000000001 53.550000000000004 57.12000000000001 0 0 0
447 4 17.85000000000001 55.33500000000001 58.905 0 0 0
448 3 19.63500000000001 53.550000000000004 58.905 0 0 0
449 5 19.63500000000001 55.33500000000001 57.12000000000001 0 0 0
450 2 17.85000000000001 53.550000000000004 60.690000000000005 0 0 0
453 1 19.63500000000001 55.33500000000001 60.690000000000005 0 0 0
467 1 17.85000000000001 58.905 44.62500000000001 0 0 0
468 4 19.63500000000001 57.12000000000001 44.62500000000001 0 0 0
469 4 19.63500000000001 58.905 42.84000000000001 0 0 0
470 3 17.85000000000001 57.12000000000001 46.410000000000004 0 0 0
471 3 17.85000000000001 58.905 48.19500000000001 0 0 0
472 5 19.63500000000001 57.12000000000001 48.19500000000001 0 0 0
473 2 19.63500000000001 58.905 46.410000000000004 0 0 0
474 3 17.85000000000001 57.12000000000001 49.98000000000001 0 0 0
475 1 17.85000000000001 58.905 51.76500000000001 0 0 0
476 5 19.63500000000001 57.12000000000001 51.76500000000001 0 0 0
477 5 19.63500000000001 58.905 49.98000000000001 0 0 0
478 3 17.85000000000001 57.12000000000001 53.550000000000004 0 0 0
479 2 17.85000000000001 58.905 55.33500000000001 0 0 0
480 5 19.63500000000001 57.12000000000001 55.33500000000001 0 0 0
481 3 19.63500000000001 58.905 53.550000000000004 0 0 0
482 3 17.85000000000001 57.12000000000001 57.12000000000001 0 0 0
483 3 17.85000000000001 58.905 58.905 0 0 0
484 5 19.63500000000001 57.12000000000001 58.905 0 0 0
485 5 19.63500000000001 58.905 57.12000000000001 0 0 0
486 2 17.85000000000001 57.12000000000001 60.690000000000005 0 0 0
489 4 19.63500000000001 58.905 60.690000000000005 0 0 0
507 4 19.63500000000001 60.690000000000005 41.055 0 0 0
508 4 17.85000000000001 60.690000000000005 42.84000000000001 0 0 0
510 2 19.63500000000001 60.690000000000005 44.62500000000001 0 0 0
512 5 17.85000000000001 60.690000000000005 46.410000000000004 0 0 0
514 4 19.63500000000001 60.690000000000005 48.19500000000001 0 0 0
516 2 17.85000000000001 60.690000000000005 49.98000000000001 0 0 0
518 2 19.63500000000001 60.690000000000005 51.76500000000001 0 0 0
520 5 17.85000000000001 60.690000000000005 53.550000000000004 0 0 0
522 2 19.63500000000001 60.690000000000005 55.33500000000001 0 0 0
524 4 17.85000000000001 60.690000000000005 57.12000000000001 0 0 0
526 5 19.63500000000001 60.690000000000005 58.905 0 0 0
528 3 17.85000000000001 60.690000000000005 60.690000000000005 0 0 0
651 2 23.205000000000005 37.48500000000001 60.690000000000005 0 0 0
652 4 21.420000000000005 41.055 58.905 0 0 0
653 4 23.205000000000005 39.27000000000001 58.905 0 0 0
654 2 23.205000000000005 41.055 57.12000000000001 0 0 0
655 4 21.420000000000005 39.27000000000001 60.690000000000005 0 0 0
658 3 23.205000000000005 41.055 60.690000000000005 0 0 0
660 2 21.420000000000005 44.62500000000001 55.33500000000001 0 0 0
661 5 23.205000000000005 42.84000000000001 55.33500000000001 0 0 0
662 5 23.205000000000005 44.62500000000001 53.550000000000004 0 0 0
663 4 21.420000000000005 42.84000000000001 57.12000000000001 0 0 0
664 2 21.420000000000005 44.62500000000001 58.905 0 0 0
665 2 23.205000000000005 42.84000000000001 58.905 0 0 0
666 3 23.205000000000005 44.62500000000001 57.12000000000001 0 0 0
667 1 21.420000000000005 42.84000000000001 60.690000000000005 0 0 0
670 1 23.205000000000005 44.62500000000001 60.690000000000005 0 0 0
676 3 21.420000000000005 48.19500000000001 48.19500000000001 0 0 0
677 1 23.205000000000005 46.410000000000004 48.19500000000001 0 0 0
678 3 23.205000000000005 48.19500000000001 46.410000000000004 0 0 0
679 3 21.420000000000005 48.19500000000001 51.76500000000001 0 0 0
680 3 23.205000000000005 46.410000000000004 51.76500000000001 0 0 0
681 4 23.205000000000005 48.19500000000001 49.98000000000001 0 0 0
682 5 21.420000000000005 46.410000000000004 53.550000000000004 0 0 0
683 2 21.420000000000005 48.19500000000001 55.33500000000001 0 0 0
684 1 23.205000000000005 46.410000000000004 55.33500000000001 0 0 0
685 3 23.205000000000005 48.19500000000001 53.550000000000004 0 0 0
686 3 21.420000000000005 46.410000000000004 57.12000000000001 0 0 0
687 5 21.420000000000005 48.19500000000001 58.905 0 0 0
688 3 23.205000000000005 46.410000000000004 58.905 0 0 0
689 3 23.205000000000005 48.19500000000001 57.12000000000001 0 0 0
690 4 21.420000000000005 46.410000000000004 60.690000000000005 0 0 0
693 1 23.205000000000005 48.19500000000001 60.690000000000005 0 0 0
706 3 21.420000000000005 51.76500000000001 48.19500000000001 0 0 0
707 1 23.205000000000005 49.98000000000001 48.19500000000001 0 0 0
708 5 23.205000000000005 51.76500000000001 46.410000000000004 0 0 0
709 4 21.420000000000005 49.98000000000001 49.98000000000001 0 0 0
710 5 21.420000000000005 51.76500000000001 51.76500000000001 0 0 0
711 4 23.205000000000005 49.98000000000001 51.76500000000001 0 0 0
712 1 23.205000000000005 51.76500000000001 49.98000000000001 0 0 0
713 5 21.420000000000005 49.98000000000001 53.550000000000004 0 0 0
714 5 21.420000000000005 51.76500000000001 55.33500000000001 0 0 0
715 2 23.205000000000005 49.98000000000001 55.33500000000001 0 0 0
716 4 23.205000000000005 51.76500000000001 53.550000000000004 0 0 0
717 1 21.420000000000005 49.98000000000001 57.12000000000001 0 0 0
718 3 21.420000000000005 51.76500000000001 58.905 0 0 0
719 3 23.205000000000005 49.98000000000001 58.905 0 0 0
720 3 23.205000000000005 51.76500000000001 57.12000000000001 0 0 0
721 3 21.420000000000005 49.98000000000001 60.690000000000005 0 0 0
724 3 23.205000000000005 51.76500000000001 60.690000000000005 0 0 0
738 4 21.420000000000005 55.33500000000001 44.62500000000001 0 0 0
739 3 23.205000000000005 53.550000000000004 44.62500000000001 0 0 0
740 1 23.205000000000005 55.33500000000001 42.84000000000001 0 0 0
741 5 21.420000000000005 53.550000000000004 46.410000000000004 0 0 0
742 3 21.420000000000005 55.33500000000001 48.19500000000001 0 0 0
743 2 23.205000000000005 53.550000000000004 48.19500000000001 0 0 0
744 1 23.205000000000005 55.33500000000001 46.410000000000004 0 0 0
745 2 21.420000000000005 53.550000000000004 49.98000000000001 0 0 0
746 5 21.420000000000005 55.33500000000001 51.76500000000001 0 0 0
747 4 23.205000000000005 53.550000000000004 51.76500000000001 0 0 0
748 5 23.205000000000005 55.33500000000001 49.98000000000001 0 0 0
749 1 21.420000000000005 53.550000000000004 53.550000000000004 0 0 0
750 2 21.420000000000005 55.33500000000001 55.33500000000001 0 0 0
751 5 23.205000000000005 53.550000000000004 55.33500000000001 0 0 0
752 4 23.205000000000005 55.33500000000001 53.550000000000004 0 0 0
753 4 21.420000000000005 53.550000000000004 57.12000000000001 0 0 0
754 4 21.420000000000005 55.33500000000001 58.905 0 0 0
755 5 23.205000000000005 53.550000000000004 58.905 0 0 0
756 3 23.205000000000005 55.33500000000001 57.12000000000001 0 0 0
757 1 21.420000000000005 53.550000000000004 60.690000000000005 0 0 0
760 4 23.205000000000005 55.33500000000001 60.690000000000005 0 0 0
778 1 21.420000000000005 58.905 41.055 0 0 0
779 2 23.205000000000005 57.12000000000001 41.055 0 0 0
780 3 23.205000000000005 58.905 39.27000000000001 0 0 0
781 1 21.420000000000005 57.12000000000001 42.84000000000001 0 0 0
782 5 21.420000000000005 58.905 44.62500000000001 0 0 0
783 3 23.205000000000005 57.12000000000001 44.62500000000001 0 0 0
784 3 23.205000000000005 58.905 42.84000000000001 0 0 0
785 5 21.420000000000005 57.12000000000001 46.410000000000004 0 0 0
786 4 21.420000000000005 58.905 48.19500000000001 0 0 0
787 3 23.205000000000005 57.12000000000001 48.19500000000001 0 0 0
788 5 23.205000000000005 58.905 46.410000000000004 0 0 0
789 2 21.420000000000005 57.12000000000001 49.98000000000001 0 0 0
790 1 21.420000000000005 58.905 51.76500000000001 0 0 0
791 3 23.205000000000005 57.12000000000001 51.76500000000001 0 0 0
792 2 23.205000000000005 58.905 49.98000000000001 0 0 0
793 3 21.420000000000005 57.12000000000001 53.550000000000004 0 0 0
794 3 21.420000000000005 58.905 55.33500000000001 0 0 0
795 3 23.205000000000005 57.12000000000001 55.33500000000001 0 0 0
796 5 23.205000000000005 58.905 53.550000000000004 0 0 0
797 2 21.420000000000005 57.12000000000001 57.12000000000001 0 0 0
798 5 21.420000000000005 58.905 58.905 0 0 0
799 2 23.205000000000005 57.12000000000001 58.905 0 0 0
800 3 23.205000000000005 58.905 57.12000000000001 0 0 0
801 4 21.420000000000005 57.12000000000001 60.690000000000005 0 0 0
804 4 23.205000000000005 58.905 60.690000000000005 0 0 0
826 1 23.205000000000005 60.690000000000005 37.48500000000001 0 0 0
827 5 21.420000000000005 60.690000000000005 39.27000000000001 0 0 0
829 3 23.205000000000005 60.690000000000005 41.055 0 0 0
831 2 21.420000000000005 60.690000000000005 42.84000000000001 0 0 0
833 5 23.205000000000005 60.690000000000005 44.62500000000001 0 0 0
835 4 21.420000000000005 60.690000000000005 46.410000000000004 0 0 0
837 2 23.205000000000005 60.690000000000005 48.19500000000001 0 0 0
839 3 21.420000000000005 60.690000000000005 49.98000000000001 0 0 0
841 1 23.205000000000005 60.690000000000005 51.76500000000001 0 0 0
843 2 21.420000000000005 60.690000000000005 53.550000000000004 0 0 0
845 5 23.205000000000005 60.690000000000005 55.33500000000001 0 0 0
847 1 21.420000000000005 60.690000000000005 57.12000000000001 0 0 0
849 4 23.205000000000005 60.690000000000005 58.905 0 0 0
851 3 21.420000000000005 60.690000000000005 60.690000000000005 0 0 0
1028 2 26.77500000000001 33.915000000000006 60.690000000000005 0 0 0
1029 4 24.990000000000013 37.48500000000001 58.905 0 0 0
1030 4 26.77500000000001 35.7 58.905 0 0 0
1031 5 26.77500000000001 37.48500000000001 57.12000000000001 0 0 0
1032 2 24.990000000000013 35.7 60.690000000000005 0 0 0
1035 2 26.77500000000001 37.48500000000001 60.690000000000005 0 0 0
1037 4 24.990000000000013 41.055 55.33500000000001 0 0 0
1038 5 26.77500000000001 39.27000000000001 55.33500000000001 0 0 0
1039 4 26.77500000000001 41.055 53.550000000000004 0 0 0
1040 3 24.990000000000013 39.27000000000001 57.12000000000001 0 0 0
1041 3 24.990000000000013 41.055 58.905 0 0 0
1042 4 26.77500000000001 39.27000000000001 58.905 0 0 0
1043 5 26.77500000000001 41.055 57.12000000000001 0 0 0
1044 5 24.990000000000013 39.27000000000001 60.690000000000005 0 0 0
1047 5 26.77500000000001 41.055 60.690000000000005 0 0 0
1053 1 24.990000000000013 44.62500000000001 48.19500000000001 0 0 0
1054 3 26.77500000000001 42.84000000000001 48.19500000000001 0 0 0
1055 2 26.77500000000001 44.62500000000001 46.410000000000004 0 0 0
1056 1 24.990000000000013 44.62500000000001 51.76500000000001 0 0 0
1057 4 26.77500000000001 42.84000000000001 51.76500000000001 0 0 0
1058 2 26.77500000000001 44.62500000000001 49.98000000000001 0 0 0
1059 1 24.990000000000013 42.84000000000001 53.550000000000004 0 0 0
1060 4 24.990000000000013 44.62500000000001 55.33500000000001 0 0 0
1061 5 26.77500000000001 42.84000000000001 55.33500000000001 0 0 0
1062 4 26.77500000000001 44.62500000000001 53.550000000000004 0 0 0
1063 1 24.990000000000013 42.84000000000001 57.12000000000001 0 0 0
1064 2 24.990000000000013 44.62500000000001 58.905 0 0 0
1065 4 26.77500000000001 42.84000000000001 58.905 0 0 0
1066 3 26.77500000000001 44.62500000000001 57.12000000000001 0 0 0
1067 5 24.990000000000013 42.84000000000001 60.690000000000005 0 0 0
1070 2 26.77500000000001 44.62500000000001 60.690000000000005 0 0 0
1083 1 24.990000000000013 48.19500000000001 44.62500000000001 0 0 0
1084 3 26.77500000000001 46.410000000000004 44.62500000000001 0 0 0
1085 1 26.77500000000001 48.19500000000001 42.84000000000001 0 0 0
1086 2 24.990000000000013 46.410000000000004 46.410000000000004 0 0 0
1087 5 24.990000000000013 48.19500000000001 48.19500000000001 0 0 0
1088 5 26.77500000000001 46.410000000000004 48.19500000000001 0 0 0
1089 5 26.77500000000001 48.19500000000001 46.410000000000004 0 0 0
1090 4 24.990000000000013 46.410000000000004 49.98000000000001 0 0 0
1091 4 24.990000000000013 48.19500000000001 51.76500000000001 0 0 0
1092 3 26.77500000000001 46.410000000000004 51.76500000000001 0 0 0
1093 1 26.77500000000001 48.19500000000001 49.98000000000001 0 0 0
1094 2 24.990000000000013 46.410000000000004 53.550000000000004 0 0 0
1095 3 24.990000000000013 48.19500000000001 55.33500000000001 0 0 0
1096 3 26.77500000000001 46.410000000000004 55.33500000000001 0 0 0
1097 1 26.77500000000001 48.19500000000001 53.550000000000004 0 0 0
1098 3 24.990000000000013 46.410000000000004 57.12000000000001 0 0 0
1099 2 24.990000000000013 48.19500000000001 58.905 0 0 0
1100 3 26.77500000000001 46.410000000000004 58.905 0 0 0
1101 4 26.77500000000001 48.19500000000001 57.12000000000001 0 0 0
1102 4 24.990000000000013 46.410000000000004 60.690000000000005 0 0 0
1105 2 26.77500000000001 48.19500000000001 60.690000000000005 0 0 0
1123 4 24.990000000000013 51.76500000000001 44.62500000000001 0 0 0
1124 2 26.77500000000001 49.98000000000001 44.62500000000001 0 0 0
1125 3 26.77500000000001 51.76500000000001 42.84000000000001 0 0 0
1126 2 24.990000000000013 49.98000000000001 46.410000000000004 0 0 0
1127 4 24.990000000000013 51.76500000000001 48.19500000000001 0 0 0
1128 4 26.77500000000001 49.98000000000001 48.19500000000001 0 0 0
1129 3 26.77500000000001 51.76500000000001 46.410000000000004 0 0 0
1130 4 24.990000000000013 49.98000000000001 49.98000000000001 0 0 0
1131 5 24.990000000000013 51.76500000000001 51.76500000000001 0 0 0
1132 3 26.77500000000001 49.98000000000001 51.76500000000001 0 0 0
1133 2 26.77500000000001 51.76500000000001 49.98000000000001 0 0 0
1134 2 24.990000000000013 49.98000000000001 53.550000000000004 0 0 0
1135 2 24.990000000000013 51.76500000000001 55.33500000000001 0 0 0
1136 1 26.77500000000001 49.98000000000001 55.33500000000001 0 0 0
1137 5 26.77500000000001 51.76500000000001 53.550000000000004 0 0 0
1138 3 24.990000000000013 49.98000000000001 57.12000000000001 0 0 0
1139 5 24.990000000000013 51.76500000000001 58.905 0 0 0
1140 3 26.77500000000001 49.98000000000001 58.905 0 0 0
1141 4 26.77500000000001 51.76500000000001 57.12000000000001 0 0 0
1142 2 24.990000000000013 49.98000000000001 60.690000000000005 0 0 0
1145 1 26.77500000000001 51.76500000000001 60.690000000000005 0 0 0
1163 3 24.990000000000013 55.33500000000001 41.055 0 0 0
1164 5 26.77500000000001 53.550000000000004 41.055 0 0 0
1165 4 26.77500000000001 55.33500000000001 39.27000000000001 0 0 0
1166 3 24.990000000000013 53.550000000000004 42.84000000000001 0 0 0
1167 4 24.990000000000013 55.33500000000001 44.62500000000001 0 0 0
1168 5 26.77500000000001 53.550000000000004 44.62500000000001 0 0 0
1169 2 26.77500000000001 55.33500000000001 42.84000000000001 0 0 0
1170 4 24.990000000000013 53.550000000000004 46.410000000000004 0 0 0
1171 5 24.990000000000013 55.33500000000001 48.19500000000001 0 0 0
1172 5 26.77500000000001 53.550000000000004 48.19500000000001 0 0 0
1173 4 26.77500000000001 55.33500000000001 46.410000000000004 0 0 0
1174 5 24.990000000000013 53.550000000000004 49.98000000000001 0 0 0
1175 1 24.990000000000013 55.33500000000001 51.76500000000001 0 0 0
1176 1 26.77500000000001 53.550000000000004 51.76500000000001 0 0 0
1177 5 26.77500000000001 55.33500000000001 49.98000000000001 0 0 0
1178 2 24.990000000000013 53.550000000000004 53.550000000000004 0 0 0
1179 1 24.990000000000013 55.33500000000001 55.33500000000001 0 0 0
1180 2 26.77500000000001 53.550000000000004 55.33500000000001 0 0 0
1181 4 26.77500000000001 55.33500000000001 53.550000000000004 0 0 0
1182 1 24.990000000000013 53.550000000000004 57.12000000000001 0 0 0
1183 3 24.990000000000013 55.33500000000001 58.905 0 0 0
1184 5 26.77500000000001 53.550000000000004 58.905 0 0 0
1185 5 26.77500000000001 55.33500000000001 57.12000000000001 0 0 0
1186 3 24.990000000000013 53.550000000000004 60.690000000000005 0 0 0
1189 1 26.77500000000001 55.33500000000001 60.690000000000005 0 0 0
1211 1 24.990000000000013 58.905 37.48500000000001 0 0 0
1212 4 26.77500000000001 57.12000000000001 37.48500000000001 0 0 0
1213 4 26.77500000000001 58.905 35.7 0 0 0
1214 4 24.990000000000013 57.12000000000001 39.27000000000001 0 0 0
1215 2 24.990000000000013 58.905 41.055 0 0 0
1216 4 26.77500000000001 57.12000000000001 41.055 0 0 0
1217 4 26.77500000000001 58.905 39.27000000000001 0 0 0
1218 2 24.990000000000013 57.12000000000001 42.84000000000001 0 0 0
1219 3 24.990000000000013 58.905 44.62500000000001 0 0 0
1220 2 26.77500000000001 57.12000000000001 44.62500000000001 0 0 0
1221 4 26.77500000000001 58.905 42.84000000000001 0 0 0
1222 2 24.990000000000013 57.12000000000001 46.410000000000004 0 0 0
1223 5 24.990000000000013 58.905 48.19500000000001 0 0 0
1224 3 26.77500000000001 57.12000000000001 48.19500000000001 0 0 0
1225 2 26.77500000000001 58.905 46.410000000000004 0 0 0
1226 1 24.990000000000013 57.12000000000001 49.98000000000001 0 0 0
1227 4 24.990000000000013 58.905 51.76500000000001 0 0 0
1228 3 26.77500000000001 57.12000000000001 51.76500000000001 0 0 0
1229 4 26.77500000000001 58.905 49.98000000000001 0 0 0
1230 2 24.990000000000013 57.12000000000001 53.550000000000004 0 0 0
1231 3 24.990000000000013 58.905 55.33500000000001 0 0 0
1232 5 26.77500000000001 57.12000000000001 55.33500000000001 0 0 0
1233 1 26.77500000000001 58.905 53.550000000000004 0 0 0
1234 3 24.990000000000013 57.12000000000001 57.12000000000001 0 0 0
1235 3 24.990000000000013 58.905 58.905 0 0 0
1236 2 26.77500000000001 57.12000000000001 58.905 0 0 0
1237 2 26.77500000000001 58.905 57.12000000000001 0 0 0
1238 3 24.990000000000013 57.12000000000001 60.690000000000005 0 0 0
1241 3 26.77500000000001 58.905 60.690000000000005 0 0 0
1267 2 26.77500000000001 60.690000000000005 33.915000000000006 0 0 0
1268 4 24.990000000000013 60.690000000000005 35.7 0 0 0
1270 3 26.77500000000001 60.690000000000005 37.48500000000001 0 0 0
1272 2 24.990000000000013 60.690000000000005 39.27000000000001 0 0 0
1274 5 26.77500000000001 60.690000000000005 41.055 0 0 0
1276 3 24.990000000000013 60.690000000000005 42.84000000000001 0 0 0
1278 2 26.77500000000001 60.690000000000005 44.62500000000001 0 0 0
1280 4 24.990000000000013 60.690000000000005 46.410000000000004 0 0 0
1282 1 26.77500000000001 60.690000000000005 48.19500000000001 0 0 0
1284 4 24.990000000000013 60.690000000000005 49.98000000000001 0 0 0
1286 4 26.77500000000001 60.690000000000005 51.76500000000001 0 0 0
1288 3 24.990000000000013 60.690000000000005 53.550000000000004 0 0 0
1290 3 26.77500000000001 60.690000000000005 55.33500000000001 0 0 0
1292 5 24.990000000000013 60.690000000000005 57.12000000000001 0 0 0
1294 2 26.77500000000001 60.690000000000005 58.905 0 0 0
1296 1 24.990000000000013 60.690000000000005 60.690000000000005 0 0 0
1537 1 30.345000000000002 30.345000000000002 60.690000000000005 0 0 0
1538 5 28.560000000000006 33.915000000000006 58.905 0 0 0
1539 5 30.345000000000002 32.13000000000001 58.905 0 0 0
1540 2 30.345000000000002 33.915000000000006 57.12000000000001 0 0 0
1541 2 28.560000000000006 32.13000000000001 60.690000000000005 0 0 0
1544 1 30.345000000000002 33.915000000000006 60.690000000000005 0 0 0
1546 4 28.560000000000006 37.48500000000001 55.33500000000001 0 0 0
1547 3 30.345000000000002 35.7 55.33500000000001 0 0 0
1548 4 30.345000000000002 37.48500000000001 53.550000000000004 0 0 0
1549 3 28.560000000000006 35.7 57.12000000000001 0 0 0
1550 2 28.560000000000006 37.48500000000001 58.905 0 0 0
1551 5 30.345000000000002 35.7 58.905 0 0 0
1552 4 30.345000000000002 37.48500000000001 57.12000000000001 0 0 0
1553 1 28.560000000000006 35.7 60.690000000000005 0 0 0