model_files/PtCu/PtCu_30000/PtCu_431/PtCu_431_fcc_29685_temp.data (written by ASE) 

29685 	 atoms 
2  atom types
0.0                     109  xlo xhi
0.0                     109  ylo yhi
0.0                     109  zlo zhi


Atoms 

     1   1      1.9250000000000043      48.125000000000014      53.900000000000006
     2   1  7.1054273576010019e-15      51.975000000000001      51.975000000000001
     3   1      1.9250000000000043      50.050000000000004      51.975000000000001
     4   1      1.9250000000000043      51.975000000000001      50.050000000000004
     5   1  7.1054273576010019e-15      50.050000000000004      53.900000000000006
     6   1  7.1054273576010019e-15      51.975000000000001       55.82500000000001
     7   1      1.9250000000000043      50.050000000000004       55.82500000000001
     8   1      1.9250000000000043      51.975000000000001      53.900000000000006
     9   1      1.9250000000000043      51.975000000000001      57.750000000000014
    10   1      1.9250000000000043      53.900000000000006      48.125000000000014
    11   1  7.1054273576010019e-15      53.900000000000006      50.050000000000004
    12   1  7.1054273576010019e-15       55.82500000000001      51.975000000000001
    13   1      1.9250000000000043      53.900000000000006      51.975000000000001
    14   1      1.9250000000000043       55.82500000000001      50.050000000000004
    15   1  7.1054273576010019e-15      53.900000000000006      53.900000000000006
    16   1  7.1054273576010019e-15       55.82500000000001       55.82500000000001
    17   1      1.9250000000000043      53.900000000000006       55.82500000000001
    18   1      1.9250000000000043       55.82500000000001      53.900000000000006
    19   1  7.1054273576010019e-15      53.900000000000006      57.750000000000014
    20   1      1.9250000000000043      53.900000000000006      59.675000000000011
    21   1      1.9250000000000043       55.82500000000001      57.750000000000014
    22   1      1.9250000000000043      57.750000000000014      51.975000000000001
    23   1  7.1054273576010019e-15      57.750000000000014      53.900000000000006
    24   1      1.9250000000000043      57.750000000000014       55.82500000000001
    25   1      1.9250000000000043      59.675000000000011      53.900000000000006
    26   1      5.7750000000000066      44.275000000000006      50.050000000000004
    27   1      5.7750000000000066      44.275000000000006      53.900000000000006
    28   1      5.7750000000000066      44.275000000000006      57.750000000000014
    29   1      3.8500000000000085      48.125000000000014      48.125000000000014
    30   1      5.7750000000000066      46.200000000000017      48.125000000000014
    31   1      5.7750000000000066      48.125000000000014      46.200000000000017
    32   1      3.8500000000000085      46.200000000000017      50.050000000000004
    33   1      3.8500000000000085      48.125000000000014      51.975000000000001
    34   1      5.7750000000000066      46.200000000000017      51.975000000000001
    35   1      5.7750000000000066      48.125000000000014      50.050000000000004
    36   1      3.8500000000000085      46.200000000000017      53.900000000000006
    37   1      3.8500000000000085      48.125000000000014       55.82500000000001
    38   1      5.7750000000000066      46.200000000000017       55.82500000000001
    39   1      5.7750000000000066      48.125000000000014      53.900000000000006
    40   1      3.8500000000000085      46.200000000000017      57.750000000000014
    41   1      3.8500000000000085      48.125000000000014      59.675000000000011
    42   1      5.7750000000000066      46.200000000000017      59.675000000000011
    43   1      5.7750000000000066      48.125000000000014      57.750000000000014
    44   1      5.7750000000000066      48.125000000000014      61.600000000000016
    45   1      5.7750000000000066      50.050000000000004      44.275000000000006
    46   1      3.8500000000000085      50.050000000000004      46.200000000000017
    47   1      3.8500000000000085      51.975000000000001      48.125000000000014
    48   1      5.7750000000000066      50.050000000000004      48.125000000000014
    49   1      5.7750000000000066      51.975000000000001      46.200000000000017
    50   1      3.8500000000000085      50.050000000000004      50.050000000000004
    51   1      3.8500000000000085      51.975000000000001      51.975000000000001
    52   1      5.7750000000000066      50.050000000000004      51.975000000000001
    53   1      5.7750000000000066      51.975000000000001      50.050000000000004
    54   1      3.8500000000000085      50.050000000000004      53.900000000000006
    55   1      3.8500000000000085      51.975000000000001       55.82500000000001
    56   1      5.7750000000000066      50.050000000000004       55.82500000000001
    57   1      5.7750000000000066      51.975000000000001      53.900000000000006
    58   1      3.8500000000000085      50.050000000000004      57.750000000000014
    59   1      3.8500000000000085      51.975000000000001      59.675000000000011
    60   1      5.7750000000000066      50.050000000000004      59.675000000000011
    61   1      5.7750000000000066      51.975000000000001      57.750000000000014
    62   1      3.8500000000000085      50.050000000000004      61.600000000000016
    63   1      5.7750000000000066      50.050000000000004      63.525000000000006
    64   1      5.7750000000000066      51.975000000000001      61.600000000000016
    65   1      5.7750000000000066      53.900000000000006      44.275000000000006
    66   1      3.8500000000000085      53.900000000000006      46.200000000000017
    67   1      3.8500000000000085       55.82500000000001      48.125000000000014
    68   1      5.7750000000000066      53.900000000000006      48.125000000000014
    69   1      5.7750000000000066       55.82500000000001      46.200000000000017
    70   1      3.8500000000000085      53.900000000000006      50.050000000000004
    71   1      3.8500000000000085       55.82500000000001      51.975000000000001
    72   1      5.7750000000000066      53.900000000000006      51.975000000000001
    73   1      5.7750000000000066       55.82500000000001      50.050000000000004
    74   1      3.8500000000000085      53.900000000000006      53.900000000000006
    75   1      3.8500000000000085       55.82500000000001       55.82500000000001
    76   1      5.7750000000000066      53.900000000000006       55.82500000000001
    77   1      5.7750000000000066       55.82500000000001      53.900000000000006
    78   1      3.8500000000000085      53.900000000000006      57.750000000000014
    79   1      3.8500000000000085       55.82500000000001      59.675000000000011
    80   1      5.7750000000000066      53.900000000000006      59.675000000000011
    81   1      5.7750000000000066       55.82500000000001      57.750000000000014
    82   1      3.8500000000000085      53.900000000000006      61.600000000000016
    83   1      5.7750000000000066      53.900000000000006      63.525000000000006
    84   1      5.7750000000000066       55.82500000000001      61.600000000000016
    85   1      5.7750000000000066      57.750000000000014      44.275000000000006
    86   1      3.8500000000000085      57.750000000000014      46.200000000000017
    87   1      3.8500000000000085      59.675000000000011      48.125000000000014
    88   1      5.7750000000000066      57.750000000000014      48.125000000000014
    89   1      5.7750000000000066      59.675000000000011      46.200000000000017
    90   1      3.8500000000000085      57.750000000000014      50.050000000000004
    91   1      3.8500000000000085      59.675000000000011      51.975000000000001
    92   1      5.7750000000000066      57.750000000000014      51.975000000000001
    93   1      5.7750000000000066      59.675000000000011      50.050000000000004
    94   1      3.8500000000000085      57.750000000000014      53.900000000000006
    95   1      3.8500000000000085      59.675000000000011       55.82500000000001
    96   1      5.7750000000000066      57.750000000000014       55.82500000000001
    97   1      5.7750000000000066      59.675000000000011      53.900000000000006
    98   1      3.8500000000000085      57.750000000000014      57.750000000000014
    99   1      3.8500000000000085      59.675000000000011      59.675000000000011
   100   1      5.7750000000000066      57.750000000000014      59.675000000000011
   101   1      5.7750000000000066      59.675000000000011      57.750000000000014
   102   1      3.8500000000000085      57.750000000000014      61.600000000000016
   103   1      5.7750000000000066      57.750000000000014      63.525000000000006
   104   1      5.7750000000000066      59.675000000000011      61.600000000000016
   105   1      5.7750000000000066      61.600000000000016      48.125000000000014
   106   1      3.8500000000000085      61.600000000000016      50.050000000000004
   107   1      5.7750000000000066      61.600000000000016      51.975000000000001
   108   1      5.7750000000000066      63.525000000000006      50.050000000000004
   109   1      3.8500000000000085      61.600000000000016      53.900000000000006
   110   1      5.7750000000000066      61.600000000000016       55.82500000000001
   111   1      5.7750000000000066      63.525000000000006      53.900000000000006
   112   1      3.8500000000000085      61.600000000000016      57.750000000000014
   113   1      5.7750000000000066      61.600000000000016      59.675000000000011
   114   1      5.7750000000000066      63.525000000000006      57.750000000000014
   115   1      9.6250000000000071      40.425000000000004      46.200000000000017
   116   1      7.7000000000000037      40.425000000000004      51.975000000000001
   117   1      9.6250000000000071      38.500000000000014      51.975000000000001
   118   1      9.6250000000000071      40.425000000000004      50.050000000000004
   119   1      7.7000000000000037      40.425000000000004       55.82500000000001
   120   1      9.6250000000000071      38.500000000000014       55.82500000000001
   121   1      9.6250000000000071      40.425000000000004      53.900000000000006
   122   1      9.6250000000000071      40.425000000000004      57.750000000000014
   123   1      9.6250000000000071      40.425000000000004      61.600000000000016
   124   1      7.7000000000000037      44.275000000000006      44.275000000000006
   125   1      9.6250000000000071      42.350000000000009      44.275000000000006
   126   1      9.6250000000000071      44.275000000000006      42.350000000000009
   127   1      7.7000000000000037      42.350000000000009      46.200000000000017
   128   1      7.7000000000000037      44.275000000000006      48.125000000000014
   129   1      9.6250000000000071      42.350000000000009      48.125000000000014
   130   1      9.6250000000000071      44.275000000000006      46.200000000000017
   131   1      7.7000000000000037      42.350000000000009      50.050000000000004
   132   1      7.7000000000000037      44.275000000000006      51.975000000000001
   133   1      9.6250000000000071      42.350000000000009      51.975000000000001
   134   1      9.6250000000000071      44.275000000000006      50.050000000000004
   135   1      7.7000000000000037      42.350000000000009      53.900000000000006
   136   1      7.7000000000000037      44.275000000000006       55.82500000000001
   137   1      9.6250000000000071      42.350000000000009       55.82500000000001
   138   1      9.6250000000000071      44.275000000000006      53.900000000000006
   139   1      7.7000000000000037      42.350000000000009      57.750000000000014
   140   1      7.7000000000000037      44.275000000000006      59.675000000000011
   141   1      9.6250000000000071      42.350000000000009      59.675000000000011
   142   1      9.6250000000000071      44.275000000000006      57.750000000000014
   143   1      7.7000000000000037      42.350000000000009      61.600000000000016
   144   1      7.7000000000000037      44.275000000000006      63.525000000000006
   145   1      9.6250000000000071      42.350000000000009      63.525000000000006
   146   1      9.6250000000000071      44.275000000000006      61.600000000000016
   147   1      9.6250000000000071      44.275000000000006      65.450000000000003
   148   1      9.6250000000000071      46.200000000000017      40.425000000000004
   149   1      7.7000000000000037      46.200000000000017      42.350000000000009
   150   1      7.7000000000000037      48.125000000000014      44.275000000000006
   151   1      9.6250000000000071      46.200000000000017      44.275000000000006
   152   1      9.6250000000000071      48.125000000000014      42.350000000000009
   153   1      7.7000000000000037      46.200000000000017      46.200000000000017
   154   1      7.7000000000000037      48.125000000000014      48.125000000000014
   155   1      9.6250000000000071      46.200000000000017      48.125000000000014
   156   1      9.6250000000000071      48.125000000000014      46.200000000000017
   157   1      7.7000000000000037      46.200000000000017      50.050000000000004
   158   1      7.7000000000000037      48.125000000000014      51.975000000000001
   159   1      9.6250000000000071      46.200000000000017      51.975000000000001
   160   1      9.6250000000000071      48.125000000000014      50.050000000000004
   161   1      7.7000000000000037      46.200000000000017      53.900000000000006
   162   1      7.7000000000000037      48.125000000000014       55.82500000000001
   163   1      9.6250000000000071      46.200000000000017       55.82500000000001
   164   1      9.6250000000000071      48.125000000000014      53.900000000000006
   165   1      7.7000000000000037      46.200000000000017      57.750000000000014
   166   1      7.7000000000000037      48.125000000000014      59.675000000000011
   167   1      9.6250000000000071      46.200000000000017      59.675000000000011
   168   1      9.6250000000000071      48.125000000000014      57.750000000000014
   169   1      7.7000000000000037      46.200000000000017      61.600000000000016
   170   1      7.7000000000000037      48.125000000000014      63.525000000000006
   171   1      9.6250000000000071      46.200000000000017      63.525000000000006
   172   1      9.6250000000000071      48.125000000000014      61.600000000000016
   173   1      7.7000000000000037      46.200000000000017      65.450000000000003
   174   1      9.6250000000000071      46.200000000000017                  67.375
   175   1      9.6250000000000071      48.125000000000014      65.450000000000003
   176   1      7.7000000000000037      51.975000000000001      40.425000000000004
   177   1      9.6250000000000071      50.050000000000004      40.425000000000004
   178   1      9.6250000000000071      51.975000000000001      38.500000000000014
   179   1      7.7000000000000037      50.050000000000004      42.350000000000009
   180   1      7.7000000000000037      51.975000000000001      44.275000000000006
   181   1      9.6250000000000071      50.050000000000004      44.275000000000006
   182   1      9.6250000000000071      51.975000000000001      42.350000000000009
   183   1      7.7000000000000037      50.050000000000004      46.200000000000017
   184   1      7.7000000000000037      51.975000000000001      48.125000000000014
   185   1      9.6250000000000071      50.050000000000004      48.125000000000014
   186   1      9.6250000000000071      51.975000000000001      46.200000000000017
   187   1      7.7000000000000037      50.050000000000004      50.050000000000004
   188   1      7.7000000000000037      51.975000000000001      51.975000000000001
   189   1      9.6250000000000071      50.050000000000004      51.975000000000001
   190   1      9.6250000000000071      51.975000000000001      50.050000000000004
   191   1      7.7000000000000037      50.050000000000004      53.900000000000006
   192   1      7.7000000000000037      51.975000000000001       55.82500000000001
   193   1      9.6250000000000071      50.050000000000004       55.82500000000001
   194   1      9.6250000000000071      51.975000000000001      53.900000000000006
   195   1      7.7000000000000037      50.050000000000004      57.750000000000014
   196   1      7.7000000000000037      51.975000000000001      59.675000000000011
   197   1      9.6250000000000071      50.050000000000004      59.675000000000011
   198   1      9.6250000000000071      51.975000000000001      57.750000000000014
   199   1      7.7000000000000037      50.050000000000004      61.600000000000016
   200   1      7.7000000000000037      51.975000000000001      63.525000000000006
   201   1      9.6250000000000071      50.050000000000004      63.525000000000006
   202   1      9.6250000000000071      51.975000000000001      61.600000000000016
   203   1      7.7000000000000037      50.050000000000004      65.450000000000003
   204   1      7.7000000000000037      51.975000000000001                  67.375
   205   1      9.6250000000000071      50.050000000000004                  67.375
   206   1      9.6250000000000071      51.975000000000001      65.450000000000003
   207   1      9.6250000000000071      51.975000000000001      69.300000000000011
   208   1      7.7000000000000037       55.82500000000001      40.425000000000004
   209   1      9.6250000000000071      53.900000000000006      40.425000000000004
   210   1      9.6250000000000071       55.82500000000001      38.500000000000014
   211   1      7.7000000000000037      53.900000000000006      42.350000000000009
   212   1      7.7000000000000037       55.82500000000001      44.275000000000006
   213   1      9.6250000000000071      53.900000000000006      44.275000000000006
   214   1      9.6250000000000071       55.82500000000001      42.350000000000009
   215   1      7.7000000000000037      53.900000000000006      46.200000000000017
   216   1      7.7000000000000037       55.82500000000001      48.125000000000014
   217   1      9.6250000000000071      53.900000000000006      48.125000000000014
   218   1      9.6250000000000071       55.82500000000001      46.200000000000017
   219   1      7.7000000000000037      53.900000000000006      50.050000000000004
   220   1      7.7000000000000037       55.82500000000001      51.975000000000001
   221   1      9.6250000000000071      53.900000000000006      51.975000000000001
   222   1      9.6250000000000071       55.82500000000001      50.050000000000004
   223   1      7.7000000000000037      53.900000000000006      53.900000000000006
   224   1      7.7000000000000037       55.82500000000001       55.82500000000001
   225   1      9.6250000000000071      53.900000000000006       55.82500000000001
   226   1      9.6250000000000071       55.82500000000001      53.900000000000006
   227   1      7.7000000000000037      53.900000000000006      57.750000000000014
   228   1      7.7000000000000037       55.82500000000001      59.675000000000011
   229   1      9.6250000000000071      53.900000000000006      59.675000000000011
   230   1      9.6250000000000071       55.82500000000001      57.750000000000014
   231   1      7.7000000000000037      53.900000000000006      61.600000000000016
   232   1      7.7000000000000037       55.82500000000001      63.525000000000006
   233   1      9.6250000000000071      53.900000000000006      63.525000000000006
   234   1      9.6250000000000071       55.82500000000001      61.600000000000016
   235   1      7.7000000000000037      53.900000000000006      65.450000000000003
   236   1      7.7000000000000037       55.82500000000001                  67.375
   237   1      9.6250000000000071      53.900000000000006                  67.375
   238   1      9.6250000000000071       55.82500000000001      65.450000000000003
   239   1      9.6250000000000071       55.82500000000001      69.300000000000011
   240   1      9.6250000000000071      57.750000000000014      40.425000000000004
   241   1      7.7000000000000037      57.750000000000014      42.350000000000009
   242   1      7.7000000000000037      59.675000000000011      44.275000000000006
   243   1      9.6250000000000071      57.750000000000014      44.275000000000006
   244   1      9.6250000000000071      59.675000000000011      42.350000000000009
   245   1      7.7000000000000037      57.750000000000014      46.200000000000017
   246   1      7.7000000000000037      59.675000000000011      48.125000000000014
   247   1      9.6250000000000071      57.750000000000014      48.125000000000014
   248   1      9.6250000000000071      59.675000000000011      46.200000000000017
   249   1      7.7000000000000037      57.750000000000014      50.050000000000004
   250   1      7.7000000000000037      59.675000000000011      51.975000000000001
   251   1      9.6250000000000071      57.750000000000014      51.975000000000001
   252   1      9.6250000000000071      59.675000000000011      50.050000000000004
   253   1      7.7000000000000037      57.750000000000014      53.900000000000006
   254   1      7.7000000000000037      59.675000000000011       55.82500000000001
   255   1      9.6250000000000071      57.750000000000014       55.82500000000001
   256   1      9.6250000000000071      59.675000000000011      53.900000000000006
   257   1      7.7000000000000037      57.750000000000014      57.750000000000014
   258   1      7.7000000000000037      59.675000000000011      59.675000000000011
   259   1      9.6250000000000071      57.750000000000014      59.675000000000011
   260   1      9.6250000000000071      59.675000000000011      57.750000000000014
   261   1      7.7000000000000037      57.750000000000014      61.600000000000016
   262   1      7.7000000000000037      59.675000000000011      63.525000000000006
   263   1      9.6250000000000071      57.750000000000014      63.525000000000006
   264   1      9.6250000000000071      59.675000000000011      61.600000000000016
   265   1      7.7000000000000037      57.750000000000014      65.450000000000003
   266   1      9.6250000000000071      57.750000000000014                  67.375
   267   1      9.6250000000000071      59.675000000000011      65.450000000000003
   268   1      9.6250000000000071      61.600000000000016      40.425000000000004
   269   1      7.7000000000000037      61.600000000000016      42.350000000000009
   270   1      7.7000000000000037      63.525000000000006      44.275000000000006
   271   1      9.6250000000000071      61.600000000000016      44.275000000000006
   272   1      9.6250000000000071      63.525000000000006      42.350000000000009
   273   1      7.7000000000000037      61.600000000000016      46.200000000000017
   274   1      7.7000000000000037      63.525000000000006      48.125000000000014
   275   1      9.6250000000000071      61.600000000000016      48.125000000000014
   276   1      9.6250000000000071      63.525000000000006      46.200000000000017
   277   1      7.7000000000000037      61.600000000000016      50.050000000000004
   278   1      7.7000000000000037      63.525000000000006      51.975000000000001
   279   1      9.6250000000000071      61.600000000000016      51.975000000000001
   280   1      9.6250000000000071      63.525000000000006      50.050000000000004
   281   1      7.7000000000000037      61.600000000000016      53.900000000000006
   282   1      7.7000000000000037      63.525000000000006       55.82500000000001
   283   1      9.6250000000000071      61.600000000000016       55.82500000000001
   284   1      9.6250000000000071      63.525000000000006      53.900000000000006
   285   1      7.7000000000000037      61.600000000000016      57.750000000000014
   286   1      7.7000000000000037      63.525000000000006      59.675000000000011
   287   1      9.6250000000000071      61.600000000000016      59.675000000000011
   288   1      9.6250000000000071      63.525000000000006      57.750000000000014
   289   1      7.7000000000000037      61.600000000000016      61.600000000000016
   290   1      7.7000000000000037      63.525000000000006      63.525000000000006
   291   1      9.6250000000000071      61.600000000000016      63.525000000000006
   292   1      9.6250000000000071      63.525000000000006      61.600000000000016
   293   1      7.7000000000000037      61.600000000000016      65.450000000000003
   294   1      9.6250000000000071      61.600000000000016                  67.375
   295   1      9.6250000000000071      63.525000000000006      65.450000000000003
   296   1      9.6250000000000071      65.450000000000003      44.275000000000006
   297   1      7.7000000000000037      65.450000000000003      46.200000000000017
   298   1      9.6250000000000071      65.450000000000003      48.125000000000014
   299   1      9.6250000000000071                  67.375      46.200000000000017
   300   1      7.7000000000000037      65.450000000000003      50.050000000000004
   301   1      7.7000000000000037                  67.375      51.975000000000001
   302   1      9.6250000000000071      65.450000000000003      51.975000000000001
   303   1      9.6250000000000071                  67.375      50.050000000000004
   304   1      7.7000000000000037      65.450000000000003      53.900000000000006
   305   1      7.7000000000000037                  67.375       55.82500000000001
   306   1      9.6250000000000071      65.450000000000003       55.82500000000001
   307   1      9.6250000000000071                  67.375      53.900000000000006
   308   1      7.7000000000000037      65.450000000000003      57.750000000000014
   309   1      9.6250000000000071      65.450000000000003      59.675000000000011
   310   1      9.6250000000000071                  67.375      57.750000000000014
   311   1      7.7000000000000037      65.450000000000003      61.600000000000016
   312   1      9.6250000000000071      65.450000000000003      63.525000000000006
   313   1      9.6250000000000071                  67.375      61.600000000000016
   314   1      9.6250000000000071      69.300000000000011      51.975000000000001
   315   1      9.6250000000000071      69.300000000000011       55.82500000000001
   316   1      13.475000000000009      32.725000000000001      53.900000000000006
   317   1      13.475000000000009      36.575000000000003      42.350000000000009
   318   1      11.550000000000006      36.575000000000003      48.125000000000014
   319   1      13.475000000000009      34.650000000000006      48.125000000000014
   320   1      13.475000000000009      36.575000000000003      46.200000000000017
   321   1      11.550000000000006      36.575000000000003      51.975000000000001
   322   1      13.475000000000009      34.650000000000006      51.975000000000001
   323   1      13.475000000000009      36.575000000000003      50.050000000000004
   324   1      11.550000000000006      34.650000000000006      53.900000000000006
   325   1      11.550000000000006      36.575000000000003       55.82500000000001
   326   1      13.475000000000009      34.650000000000006       55.82500000000001
   327   1      13.475000000000009      36.575000000000003      53.900000000000006
   328   1      11.550000000000006      36.575000000000003      59.675000000000011
   329   1      13.475000000000009      34.650000000000006      59.675000000000011
   330   1      13.475000000000009      36.575000000000003      57.750000000000014
   331   1      13.475000000000009      36.575000000000003      61.600000000000016
   332   1      13.475000000000009      36.575000000000003      65.450000000000003
   333   1      11.550000000000006      40.425000000000004      40.425000000000004
   334   1      13.475000000000009      38.500000000000014      40.425000000000004
   335   1      13.475000000000009      40.425000000000004      38.500000000000014
   336   1      11.550000000000006      38.500000000000014      42.350000000000009
   337   1      11.550000000000006      40.425000000000004      44.275000000000006
   338   1      13.475000000000009      38.500000000000014      44.275000000000006
   339   1      13.475000000000009      40.425000000000004      42.350000000000009
   340   1      11.550000000000006      38.500000000000014      46.200000000000017
   341   1      11.550000000000006      40.425000000000004      48.125000000000014
   342   1      13.475000000000009      38.500000000000014      48.125000000000014
   343   1      13.475000000000009      40.425000000000004      46.200000000000017
   344   1      11.550000000000006      38.500000000000014      50.050000000000004
   345   1      11.550000000000006      40.425000000000004      51.975000000000001
   346   1      13.475000000000009      38.500000000000014      51.975000000000001
   347   1      13.475000000000009      40.425000000000004      50.050000000000004
   348   1      11.550000000000006      38.500000000000014      53.900000000000006
   349   1      11.550000000000006      40.425000000000004       55.82500000000001
   350   1      13.475000000000009      38.500000000000014       55.82500000000001
   351   1      13.475000000000009      40.425000000000004      53.900000000000006
   352   1      11.550000000000006      38.500000000000014      57.750000000000014
   353   1      11.550000000000006      40.425000000000004      59.675000000000011
   354   1      13.475000000000009      38.500000000000014      59.675000000000011
   355   1      13.475000000000009      40.425000000000004      57.750000000000014
   356   1      11.550000000000006      38.500000000000014      61.600000000000016
   357   1      11.550000000000006      40.425000000000004      63.525000000000006
   358   1      13.475000000000009      38.500000000000014      63.525000000000006