model_files/Ni/Ni_30000/Ni_411/data.Ni_411_fcc_29957 (written by ASE) 

29957 	 atoms 
1  atom types
0.0                      84  xlo xhi
0.0                      84  ylo yhi
0.0                      84  zlo zhi


Atoms 

     1   1      1.7600000000000049      36.960000000000001      42.240000000000002
     2   1      1.7600000000000049      38.720000000000006      40.480000000000004
     3   1      1.7600000000000049      40.480000000000004      38.720000000000006
     4   1      1.7600000000000049      38.720000000000006      43.999999999999993
     5   1      1.7600000000000049      40.480000000000004      42.240000000000002
     6   1      1.7600000000000049      40.480000000000004      45.760000000000005
     7   1      1.7600000000000049      42.240000000000002      36.960000000000001
     8   1      1.7600000000000049      42.240000000000002      40.480000000000004
     9   1      1.7600000000000049      43.999999999999993      38.720000000000006
    10   1  7.1054273576010019e-15      42.240000000000002      42.240000000000002
    11   1      1.7600000000000049      42.240000000000002      43.999999999999993
    12   1      1.7600000000000049      43.999999999999993      42.240000000000002
    13   1      1.7600000000000049      42.240000000000002      47.520000000000003
    14   1      1.7600000000000049      43.999999999999993      45.760000000000005
    15   1      1.7600000000000049      45.760000000000005      40.480000000000004
    16   1      1.7600000000000049      45.760000000000005      43.999999999999993
    17   1      1.7600000000000049      47.520000000000003      42.240000000000002
    18   1      5.2800000000000082      22.880000000000006      42.240000000000002
    19   1      5.2800000000000082      24.640000000000004      40.480000000000004
    20   1      5.2800000000000082      26.400000000000006      38.720000000000006
    21   1      5.2800000000000082      24.640000000000004      43.999999999999993
    22   1      5.2800000000000082      26.400000000000006      42.240000000000002
    23   1      5.2800000000000082      26.400000000000006      45.760000000000005
    24   1      5.2800000000000082      28.160000000000004      36.960000000000001
    25   1      5.2800000000000082      29.919999999999998      35.200000000000003
    26   1      3.5200000000000027      29.919999999999998      40.480000000000004
    27   1      5.2800000000000082      28.160000000000004      40.480000000000004
    28   1      5.2800000000000082      29.919999999999998      38.720000000000006
    29   1      3.5200000000000027      28.160000000000004      42.240000000000002
    30   1      3.5200000000000027      29.919999999999998      43.999999999999993
    31   1      5.2800000000000082      28.160000000000004      43.999999999999993
    32   1      5.2800000000000082      29.919999999999998      42.240000000000002
    33   1      5.2800000000000082      28.160000000000004      47.520000000000003
    34   1      5.2800000000000082      29.919999999999998      45.760000000000005
    35   1      5.2800000000000082      29.919999999999998      49.280000000000001
    36   1      5.2800000000000082      31.680000000000007      33.440000000000005
    37   1      5.2800000000000082      33.440000000000005      31.680000000000007
    38   1      3.5200000000000027      33.440000000000005      36.960000000000001
    39   1      5.2800000000000082      31.680000000000007      36.960000000000001
    40   1      5.2800000000000082      33.440000000000005      35.200000000000003
    41   1      3.5200000000000027      31.680000000000007      38.720000000000006
    42   1      3.5200000000000027      33.440000000000005      40.480000000000004
    43   1      5.2800000000000082      31.680000000000007      40.480000000000004
    44   1      5.2800000000000082      33.440000000000005      38.720000000000006
    45   1      3.5200000000000027      31.680000000000007      42.240000000000002
    46   1      3.5200000000000027      33.440000000000005      43.999999999999993
    47   1      5.2800000000000082      31.680000000000007      43.999999999999993
    48   1      5.2800000000000082      33.440000000000005      42.240000000000002
    49   1      3.5200000000000027      31.680000000000007      45.760000000000005
    50   1      3.5200000000000027      33.440000000000005      47.520000000000003
    51   1      5.2800000000000082      31.680000000000007      47.520000000000003
    52   1      5.2800000000000082      33.440000000000005      45.760000000000005
    53   1      5.2800000000000082      31.680000000000007      51.039999999999999
    54   1      5.2800000000000082      33.440000000000005      49.280000000000001
    55   1      5.2800000000000082      33.440000000000005      52.799999999999997
    56   1      5.2800000000000082      35.200000000000003      29.919999999999998
    57   1      5.2800000000000082      36.960000000000001      28.160000000000004
    58   1      3.5200000000000027      36.960000000000001      33.440000000000005
    59   1      5.2800000000000082      35.200000000000003      33.440000000000005
    60   1      5.2800000000000082      36.960000000000001      31.680000000000007
    61   1      3.5200000000000027      35.200000000000003      35.200000000000003
    62   1      3.5200000000000027      36.960000000000001      36.960000000000001
    63   1      5.2800000000000082      35.200000000000003      36.960000000000001
    64   1      5.2800000000000082      36.960000000000001      35.200000000000003
    65   1      3.5200000000000027      35.200000000000003      38.720000000000006
    66   1      3.5200000000000027      36.960000000000001      40.480000000000004
    67   1      5.2800000000000082      35.200000000000003      40.480000000000004
    68   1      5.2800000000000082      36.960000000000001      38.720000000000006
    69   1      3.5200000000000027      35.200000000000003      42.240000000000002
    70   1      3.5200000000000027      36.960000000000001      43.999999999999993
    71   1      5.2800000000000082      35.200000000000003      43.999999999999993
    72   1      5.2800000000000082      36.960000000000001      42.240000000000002
    73   1      3.5200000000000027      35.200000000000003      45.760000000000005
    74   1      3.5200000000000027      36.960000000000001      47.520000000000003
    75   1      5.2800000000000082      35.200000000000003      47.520000000000003
    76   1      5.2800000000000082      36.960000000000001      45.760000000000005
    77   1      3.5200000000000027      35.200000000000003      49.280000000000001
    78   1      3.5200000000000027      36.960000000000001      51.039999999999999
    79   1      5.2800000000000082      35.200000000000003      51.039999999999999
    80   1      5.2800000000000082      36.960000000000001      49.280000000000001
    81   1      5.2800000000000082      35.200000000000003      54.559999999999995
    82   1      5.2800000000000082      36.960000000000001      52.799999999999997
    83   1      5.2800000000000082      36.960000000000001      56.320000000000007
    84   1      5.2800000000000082      38.720000000000006      26.400000000000006
    85   1      5.2800000000000082      40.480000000000004      24.640000000000004
    86   1      3.5200000000000027      40.480000000000004      29.919999999999998
    87   1      5.2800000000000082      38.720000000000006      29.919999999999998
    88   1      5.2800000000000082      40.480000000000004      28.160000000000004
    89   1      3.5200000000000027      38.720000000000006      31.680000000000007
    90   1      3.5200000000000027      40.480000000000004      33.440000000000005
    91   1      5.2800000000000082      38.720000000000006      33.440000000000005
    92   1      5.2800000000000082      40.480000000000004      31.680000000000007
    93   1      3.5200000000000027      38.720000000000006      35.200000000000003
    94   1      3.5200000000000027      40.480000000000004      36.960000000000001
    95   1      5.2800000000000082      38.720000000000006      36.960000000000001
    96   1      5.2800000000000082      40.480000000000004      35.200000000000003
    97   1      3.5200000000000027      38.720000000000006      38.720000000000006
    98   1      3.5200000000000027      40.480000000000004      40.480000000000004
    99   1      5.2800000000000082      38.720000000000006      40.480000000000004
   100   1      5.2800000000000082      40.480000000000004      38.720000000000006
   101   1      3.5200000000000027      38.720000000000006      42.240000000000002
   102   1      3.5200000000000027      40.480000000000004      43.999999999999993
   103   1      5.2800000000000082      38.720000000000006      43.999999999999993
   104   1      5.2800000000000082      40.480000000000004      42.240000000000002
   105   1      3.5200000000000027      38.720000000000006      45.760000000000005
   106   1      3.5200000000000027      40.480000000000004      47.520000000000003
   107   1      5.2800000000000082      38.720000000000006      47.520000000000003
   108   1      5.2800000000000082      40.480000000000004      45.760000000000005
   109   1      3.5200000000000027      38.720000000000006      49.280000000000001
   110   1      3.5200000000000027      40.480000000000004      51.039999999999999
   111   1      5.2800000000000082      38.720000000000006      51.039999999999999
   112   1      5.2800000000000082      40.480000000000004      49.280000000000001
   113   1      3.5200000000000027      38.720000000000006      52.799999999999997
   114   1      3.5200000000000027      40.480000000000004      54.559999999999995
   115   1      5.2800000000000082      38.720000000000006      54.559999999999995
   116   1      5.2800000000000082      40.480000000000004      52.799999999999997
   117   1      5.2800000000000082      38.720000000000006      58.080000000000005
   118   1      5.2800000000000082      40.480000000000004      56.320000000000007
   119   1      5.2800000000000082      40.480000000000004      59.839999999999996
   120   1      5.2800000000000082      42.240000000000002      22.880000000000006
   121   1      5.2800000000000082      42.240000000000002      26.400000000000006
   122   1      5.2800000000000082      43.999999999999993      24.640000000000004
   123   1      3.5200000000000027      42.240000000000002      28.160000000000004
   124   1      3.5200000000000027      43.999999999999993      29.919999999999998
   125   1      5.2800000000000082      42.240000000000002      29.919999999999998
   126   1      5.2800000000000082      43.999999999999993      28.160000000000004
   127   1      3.5200000000000027      42.240000000000002      31.680000000000007
   128   1      3.5200000000000027      43.999999999999993      33.440000000000005
   129   1      5.2800000000000082      42.240000000000002      33.440000000000005
   130   1      5.2800000000000082      43.999999999999993      31.680000000000007
   131   1      3.5200000000000027      42.240000000000002      35.200000000000003
   132   1      3.5200000000000027      43.999999999999993      36.960000000000001
   133   1      5.2800000000000082      42.240000000000002      36.960000000000001
   134   1      5.2800000000000082      43.999999999999993      35.200000000000003
   135   1      3.5200000000000027      42.240000000000002      38.720000000000006
   136   1      3.5200000000000027      43.999999999999993      40.480000000000004
   137   1      5.2800000000000082      42.240000000000002      40.480000000000004
   138   1      5.2800000000000082      43.999999999999993      38.720000000000006
   139   1      3.5200000000000027      42.240000000000002      42.240000000000002
   140   1      3.5200000000000027      43.999999999999993      43.999999999999993
   141   1      5.2800000000000082      42.240000000000002      43.999999999999993
   142   1      5.2800000000000082      43.999999999999993      42.240000000000002
   143   1      3.5200000000000027      42.240000000000002      45.760000000000005
   144   1      3.5200000000000027      43.999999999999993      47.520000000000003
   145   1      5.2800000000000082      42.240000000000002      47.520000000000003
   146   1      5.2800000000000082      43.999999999999993      45.760000000000005
   147   1      3.5200000000000027      42.240000000000002      49.280000000000001
   148   1      3.5200000000000027      43.999999999999993      51.039999999999999
   149   1      5.2800000000000082      42.240000000000002      51.039999999999999
   150   1      5.2800000000000082      43.999999999999993      49.280000000000001
   151   1      3.5200000000000027      42.240000000000002      52.799999999999997
   152   1      3.5200000000000027      43.999999999999993      54.559999999999995
   153   1      5.2800000000000082      42.240000000000002      54.559999999999995
   154   1      5.2800000000000082      43.999999999999993      52.799999999999997
   155   1      3.5200000000000027      42.240000000000002      56.320000000000007
   156   1      5.2800000000000082      42.240000000000002      58.080000000000005
   157   1      5.2800000000000082      43.999999999999993      56.320000000000007
   158   1      5.2800000000000082      42.240000000000002      61.600000000000009
   159   1      5.2800000000000082      43.999999999999993      59.839999999999996
   160   1      5.2800000000000082      45.760000000000005      26.400000000000006
   161   1      5.2800000000000082      45.760000000000005      29.919999999999998
   162   1      5.2800000000000082      47.520000000000003      28.160000000000004
   163   1      3.5200000000000027      45.760000000000005      31.680000000000007
   164   1      3.5200000000000027      47.520000000000003      33.440000000000005
   165   1      5.2800000000000082      45.760000000000005      33.440000000000005
   166   1      5.2800000000000082      47.520000000000003      31.680000000000007
   167   1      3.5200000000000027      45.760000000000005      35.200000000000003
   168   1      3.5200000000000027      47.520000000000003      36.960000000000001
   169   1      5.2800000000000082      45.760000000000005      36.960000000000001
   170   1      5.2800000000000082      47.520000000000003      35.200000000000003
   171   1      3.5200000000000027      45.760000000000005      38.720000000000006
   172   1      3.5200000000000027      47.520000000000003      40.480000000000004
   173   1      5.2800000000000082      45.760000000000005      40.480000000000004
   174   1      5.2800000000000082      47.520000000000003      38.720000000000006
   175   1      3.5200000000000027      45.760000000000005      42.240000000000002
   176   1      3.5200000000000027      47.520000000000003      43.999999999999993
   177   1      5.2800000000000082      45.760000000000005      43.999999999999993
   178   1      5.2800000000000082      47.520000000000003      42.240000000000002
   179   1      3.5200000000000027      45.760000000000005      45.760000000000005
   180   1      3.5200000000000027      47.520000000000003      47.520000000000003
   181   1      5.2800000000000082      45.760000000000005      47.520000000000003
   182   1      5.2800000000000082      47.520000000000003      45.760000000000005
   183   1      3.5200000000000027      45.760000000000005      49.280000000000001
   184   1      3.5200000000000027      47.520000000000003      51.039999999999999
   185   1      5.2800000000000082      45.760000000000005      51.039999999999999
   186   1      5.2800000000000082      47.520000000000003      49.280000000000001
   187   1      3.5200000000000027      45.760000000000005      52.799999999999997
   188   1      5.2800000000000082      45.760000000000005      54.559999999999995
   189   1      5.2800000000000082      47.520000000000003      52.799999999999997
   190   1      5.2800000000000082      45.760000000000005      58.080000000000005
   191   1      5.2800000000000082      47.520000000000003      56.320000000000007
   192   1      5.2800000000000082      49.280000000000001      29.919999999999998
   193   1      5.2800000000000082      49.280000000000001      33.440000000000005
   194   1      5.2800000000000082      51.039999999999999      31.680000000000007
   195   1      3.5200000000000027      49.280000000000001      35.200000000000003
   196   1      3.5200000000000027      51.039999999999999      36.960000000000001
   197   1      5.2800000000000082      49.280000000000001      36.960000000000001
   198   1      5.2800000000000082      51.039999999999999      35.200000000000003
   199   1      3.5200000000000027      49.280000000000001      38.720000000000006
   200   1      3.5200000000000027      51.039999999999999      40.480000000000004
   201   1      5.2800000000000082      49.280000000000001      40.480000000000004
   202   1      5.2800000000000082      51.039999999999999      38.720000000000006
   203   1      3.5200000000000027      49.280000000000001      42.240000000000002
   204   1      3.5200000000000027      51.039999999999999      43.999999999999993
   205   1      5.2800000000000082      49.280000000000001      43.999999999999993
   206   1      5.2800000000000082      51.039999999999999      42.240000000000002
   207   1      3.5200000000000027      49.280000000000001      45.760000000000005
   208   1      3.5200000000000027      51.039999999999999      47.520000000000003
   209   1      5.2800000000000082      49.280000000000001      47.520000000000003
   210   1      5.2800000000000082      51.039999999999999      45.760000000000005
   211   1      3.5200000000000027      49.280000000000001      49.280000000000001
   212   1      5.2800000000000082      49.280000000000001      51.039999999999999
   213   1      5.2800000000000082      51.039999999999999      49.280000000000001
   214   1      5.2800000000000082      49.280000000000001      54.559999999999995
   215   1      5.2800000000000082      51.039999999999999      52.799999999999997
   216   1      5.2800000000000082      52.799999999999997      33.440000000000005
   217   1      5.2800000000000082      52.799999999999997      36.960000000000001
   218   1      5.2800000000000082      54.559999999999995      35.200000000000003
   219   1      3.5200000000000027      52.799999999999997      38.720000000000006
   220   1      3.5200000000000027      54.559999999999995      40.480000000000004
   221   1      5.2800000000000082      52.799999999999997      40.480000000000004
   222   1      5.2800000000000082      54.559999999999995      38.720000000000006
   223   1      3.5200000000000027      52.799999999999997      42.240000000000002
   224   1      3.5200000000000027      54.559999999999995      43.999999999999993
   225   1      5.2800000000000082      52.799999999999997      43.999999999999993
   226   1      5.2800000000000082      54.559999999999995      42.240000000000002
   227   1      3.5200000000000027      52.799999999999997      45.760000000000005
   228   1      5.2800000000000082      52.799999999999997      47.520000000000003
   229   1      5.2800000000000082      54.559999999999995      45.760000000000005
   230   1      5.2800000000000082      52.799999999999997      51.039999999999999
   231   1      5.2800000000000082      54.559999999999995      49.280000000000001
   232   1      5.2800000000000082      56.320000000000007      36.960000000000001
   233   1      5.2800000000000082      56.320000000000007      40.480000000000004
   234   1      5.2800000000000082      58.080000000000005      38.720000000000006
   235   1      3.5200000000000027      56.320000000000007      42.240000000000002
   236   1      5.2800000000000082      56.320000000000007      43.999999999999993
   237   1      5.2800000000000082      58.080000000000005      42.240000000000002
   238   1      5.2800000000000082      56.320000000000007      47.520000000000003
   239   1      5.2800000000000082      58.080000000000005      45.760000000000005
   240   1      5.2800000000000082      59.839999999999996      40.480000000000004
   241   1      5.2800000000000082      59.839999999999996      43.999999999999993
   242   1      5.2800000000000082      61.600000000000009      42.240000000000002
   243   1      8.8000000000000043      8.8000000000000043      42.240000000000002
   244   1      8.8000000000000043                   10.56      40.480000000000004
   245   1      8.8000000000000043      12.320000000000002      38.720000000000006
   246   1      8.8000000000000043                   10.56      43.999999999999993
   247   1      8.8000000000000043      12.320000000000002      42.240000000000002
   248   1      8.8000000000000043      12.320000000000002      45.760000000000005
   249   1      8.8000000000000043      14.080000000000004      36.960000000000001
   250   1      8.8000000000000043      15.840000000000005      35.200000000000003
   251   1      7.0400000000000054      15.840000000000005      40.480000000000004
   252   1      8.8000000000000043      14.080000000000004      40.480000000000004
   253   1      8.8000000000000043      15.840000000000005      38.720000000000006
   254   1      7.0400000000000054      14.080000000000004      42.240000000000002
   255   1      7.0400000000000054      15.840000000000005      43.999999999999993
   256   1      8.8000000000000043      14.080000000000004      43.999999999999993
   257   1      8.8000000000000043      15.840000000000005      42.240000000000002
   258   1      8.8000000000000043      14.080000000000004      47.520000000000003
   259   1      8.8000000000000043      15.840000000000005      45.760000000000005
   260   1      8.8000000000000043      15.840000000000005      49.280000000000001
   261   1      8.8000000000000043      17.600000000000005      33.440000000000005
   262   1      8.8000000000000043      19.360000000000003      31.680000000000007
   263   1      7.0400000000000054      19.360000000000003      36.960000000000001
   264   1      8.8000000000000043      17.600000000000005      36.960000000000001
   265   1      8.8000000000000043      19.360000000000003      35.200000000000003
   266   1      7.0400000000000054      17.600000000000005      38.720000000000006
   267   1      7.0400000000000054      19.360000000000003      40.480000000000004
   268   1      8.8000000000000043      17.600000000000005      40.480000000000004
   269   1      8.8000000000000043      19.360000000000003      38.720000000000006
   270   1      7.0400000000000054      17.600000000000005      42.240000000000002
   271   1      7.0400000000000054      19.360000000000003      43.999999999999993
   272   1      8.8000000000000043      17.600000000000005      43.999999999999993
   273   1      8.8000000000000043      19.360000000000003      42.240000000000002
   274   1      7.0400000000000054      17.600000000000005      45.760000000000005
   275   1      7.0400000000000054      19.360000000000003      47.520000000000003
   276   1      8.8000000000000043      17.600000000000005      47.520000000000003
   277   1      8.8000000000000043      19.360000000000003      45.760000000000005
   278   1      8.8000000000000043      17.600000000000005      51.039999999999999
   279   1      8.8000000000000043      19.360000000000003      49.280000000000001
   280   1      8.8000000000000043      19.360000000000003      52.799999999999997
   281   1      8.8000000000000043      21.120000000000001      29.919999999999998
   282   1      8.8000000000000043      22.880000000000006      28.160000000000004
   283   1      7.0400000000000054      22.880000000000006      33.440000000000005
   284   1      8.8000000000000043      21.120000000000001      33.440000000000005
   285   1      8.8000000000000043      22.880000000000006      31.680000000000007
   286   1      7.0400000000000054      21.120000000000001      35.200000000000003
   287   1      7.0400000000000054      22.880000000000006      36.960000000000001
   288   1      8.8000000000000043      21.120000000000001      36.960000000000001
   289   1      8.8000000000000043      22.880000000000006      35.200000000000003
   290   1      7.0400000000000054      21.120000000000001      38.720000000000006
   291   1      7.0400000000000054      22.880000000000006      40.480000000000004
   292   1      8.8000000000000043      21.120000000000001      40.480000000000004
   293   1      8.8000000000000043      22.880000000000006      38.720000000000006
   294   1      7.0400000000000054      21.120000000000001      42.240000000000002
   295   1      7.0400000000000054      22.880000000000006      43.999999999999993
   296   1      8.8000000000000043      21.120000000000001      43.999999999999993
   297   1      8.8000000000000043      22.880000000000006      42.240000000000002
   298   1      7.0400000000000054      21.120000000000001      45.760000000000005
   299   1      7.0400000000000054      22.880000000000006      47.520000000000003
   300   1      8.8000000000000043      21.120000000000001      47.520000000000003
   301   1      8.8000000000000043      22.880000000000006      45.760000000000005
   302   1      7.0400000000000054      21.120000000000001      49.280000000000001
   303   1      7.0400000000000054      22.880000000000006      51.039999999999999
   304   1      8.8000000000000043      21.120000000000001      51.039999999999999
   305   1      8.8000000000000043      22.880000000000006      49.280000000000001
   306   1      8.8000000000000043      21.120000000000001      54.559999999999995
   307   1      8.8000000000000043      22.880000000000006      52.799999999999997
   308   1      8.8000000000000043      22.880000000000006      56.320000000000007
   309   1      8.8000000000000043      24.640000000000004      26.400000000000006
   310   1      8.8000000000000043      26.400000000000006      24.640000000000004
   311   1      7.0400000000000054      26.400000000000006      29.919999999999998
   312   1      8.8000000000000043      24.640000000000004      29.919999999999998
   313   1      8.8000000000000043      26.400000000000006      28.160000000000004
   314   1      7.0400000000000054      24.640000000000004      31.680000000000007
   315   1      7.0400000000000054      26.400000000000006      33.440000000000005
   316   1      8.8000000000000043      24.640000000000004      33.440000000000005
   317   1      8.8000000000000043      26.400000000000006      31.680000000000007
   318   1      7.0400000000000054      24.640000000000004      35.200000000000003
   319   1      7.0400000000000054      26.400000000000006      36.960000000000001
   320   1      8.8000000000000043      24.640000000000004      36.960000000000001
   321   1      8.8000000000000043      26.400000000000006      35.200000000000003
   322   1      7.0400000000000054      24.640000000000004      38.720000000000006
   323   1      7.0400000000000054      26.400000000000006      40.480000000000004
   324   1      8.8000000000000043      24.640000000000004      40.480000000000004
   325   1      8.8000000000000043      26.400000000000006      38.720000000000006
   326   1      7.0400000000000054      24.640000000000004      42.240000000000002
   327   1      7.0400000000000054      26.400000000000006      43.999999999999993
   328   1      8.8000000000000043      24.640000000000004      43.999999999999993
   329   1      8.8000000000000043      26.400000000000006      42.240000000000002
   330   1      7.0400000000000054      24.640000000000004      45.760000000000005
   331   1      7.0400000000000054      26.400000000000006      47.520000000000003
   332   1      8.8000000000000043      24.640000000000004      47.520000000000003
   333   1      8.8000000000000043      26.400000000000006      45.760000000000005
   334   1      7.0400000000000054      24.640000000000004      49.280000000000001
   335   1      7.0400000000000054      26.400000000000006      51.039999999999999
   336   1      8.8000000000000043      24.640000000000004      51.039999999999999
   337   1      8.8000000000000043      26.400000000000006      49.280000000000001
   338   1      7.0400000000000054      24.640000000000004      52.799999999999997
   339   1      7.0400000000000054      26.400000000000006      54.559999999999995
   340   1      8.8000000000000043      24.640000000000004      54.559999999999995
   341   1      8.8000000000000043      26.400000000000006      52.799999999999997
   342   1      8.8000000000000043      24.640000000000004      58.080000000000005
   343   1      8.8000000000000043      26.400000000000006      56.320000000000007
   344   1      8.8000000000000043      26.400000000000006      59.839999999999996
   345   1      8.8000000000000043      28.160000000000004      22.880000000000006
   346   1      8.8000000000000043      29.919999999999998      21.120000000000001
   347   1      7.0400000000000054      29.919999999999998      26.400000000000006
   348   1      8.8000000000000043      28.160000000000004      26.400000000000006
   349   1      8.8000000000000043      29.919999999999998      24.640000000000004
   350   1      7.0400000000000054      28.160000000000004      28.160000000000004
   351   1      7.0400000000000054      29.919999999999998      29.919999999999998
   352   1      8.8000000000000043      28.160000000000004      29.919999999999998
   353   1      8.8000000000000043      29.919999999999998      28.160000000000004
   354   1      7.0400000000000054      28.160000000000004      31.680000000000007
   355   1      7.0400000000000054      29.919999999999998      33.440000000000005
   356   1      8.8000000000000043      28.160000000000004      33.440000000000005
   357   1      8.8000000000000043      29.919999999999998      31.680000000000007
   358   1      7.0400000000000054      28.160000000000004      35.200000000000003