model_files/PtCo/PtCo_30000/PtCo_510/PtCo_510_fcc_29899_temp.data (written by ASE) 

29899 	 atoms 
2  atom types
0.0                      80  xlo xhi
0.0                      80  ylo yhi
0.0                      80  zlo zhi


Atoms 

     1   1      1.8250000000000099      31.025000000000013      32.850000000000009
     2   1      1.8250000000000099      31.025000000000013      36.500000000000007
     3   1      1.8250000000000099      31.025000000000013      40.150000000000006
     4   1      1.8250000000000099      31.025000000000013      43.800000000000011
     5   1      1.8250000000000099      31.025000000000013       47.45000000000001
     6   1      1.8250000000000099      32.850000000000009      31.025000000000013
     7   1      1.8250000000000099      32.850000000000009      34.675000000000011
     8   1      1.8250000000000099      34.675000000000011      32.850000000000009
     9   1      1.8250000000000099      32.850000000000009      38.325000000000017
    10   1      1.8250000000000099      34.675000000000011      36.500000000000007
    11   1      1.8250000000000099      32.850000000000009      41.975000000000009
    12   1      1.8250000000000099      34.675000000000011      40.150000000000006
    13   1      1.8250000000000099      32.850000000000009      45.625000000000007
    14   1      1.8250000000000099      34.675000000000011      43.800000000000011
    15   1      1.8250000000000099      32.850000000000009       49.27500000000002
    16   1      1.8250000000000099      34.675000000000011       47.45000000000001
    17   1      1.8250000000000099      36.500000000000007      31.025000000000013
    18   1      1.8250000000000099      36.500000000000007      34.675000000000011
    19   1      1.8250000000000099      38.325000000000017      32.850000000000009
    20   1      1.8250000000000099      36.500000000000007      38.325000000000017
    21   1      1.8250000000000099      38.325000000000017      36.500000000000007
    22   1      1.8250000000000099      36.500000000000007      41.975000000000009
    23   1      1.8250000000000099      38.325000000000017      40.150000000000006
    24   1      1.8250000000000099      36.500000000000007      45.625000000000007
    25   1      1.8250000000000099      38.325000000000017      43.800000000000011
    26   1      1.8250000000000099      36.500000000000007       49.27500000000002
    27   1      1.8250000000000099      38.325000000000017       47.45000000000001
    28   1      1.8250000000000099      40.150000000000006      31.025000000000013
    29   1      1.8250000000000099      40.150000000000006      34.675000000000011
    30   1      1.8250000000000099      41.975000000000009      32.850000000000009
    31   1      1.8250000000000099      40.150000000000006      38.325000000000017
    32   1      1.8250000000000099      41.975000000000009      36.500000000000007
    33   1  7.1054273576010019e-15      40.150000000000006      40.150000000000006
    34   1      1.8250000000000099      40.150000000000006      41.975000000000009
    35   1      1.8250000000000099      41.975000000000009      40.150000000000006
    36   1      1.8250000000000099      40.150000000000006      45.625000000000007
    37   1      1.8250000000000099      41.975000000000009      43.800000000000011
    38   1      1.8250000000000099      40.150000000000006       49.27500000000002
    39   1      1.8250000000000099      41.975000000000009       47.45000000000001
    40   1      1.8250000000000099      43.800000000000011      31.025000000000013
    41   1      1.8250000000000099      43.800000000000011      34.675000000000011
    42   1      1.8250000000000099      45.625000000000007      32.850000000000009
    43   1      1.8250000000000099      43.800000000000011      38.325000000000017
    44   1      1.8250000000000099      45.625000000000007      36.500000000000007
    45   1      1.8250000000000099      43.800000000000011      41.975000000000009
    46   1      1.8250000000000099      45.625000000000007      40.150000000000006
    47   1      1.8250000000000099      43.800000000000011      45.625000000000007
    48   1      1.8250000000000099      45.625000000000007      43.800000000000011
    49   1      1.8250000000000099      43.800000000000011       49.27500000000002
    50   1      1.8250000000000099      45.625000000000007       47.45000000000001
    51   1      1.8250000000000099       47.45000000000001      31.025000000000013
    52   1      1.8250000000000099       47.45000000000001      34.675000000000011
    53   1      1.8250000000000099       49.27500000000002      32.850000000000009
    54   1      1.8250000000000099       47.45000000000001      38.325000000000017
    55   1      1.8250000000000099       49.27500000000002      36.500000000000007
    56   1      1.8250000000000099       47.45000000000001      41.975000000000009
    57   1      1.8250000000000099       49.27500000000002      40.150000000000006
    58   1      1.8250000000000099       47.45000000000001      45.625000000000007
    59   1      1.8250000000000099       49.27500000000002      43.800000000000011
    60   1      1.8250000000000099       47.45000000000001       49.27500000000002
    61   1      1.8250000000000099       49.27500000000002       47.45000000000001
    62   1      5.4750000000000085      12.775000000000009      14.600000000000009
    63   1      5.4750000000000085      12.775000000000009      18.250000000000007
    64   1      5.4750000000000085      12.775000000000009      21.900000000000009
    65   1      5.4750000000000085      12.775000000000009      25.550000000000011
    66   1      5.4750000000000085      12.775000000000009      29.200000000000014
    67   1      5.4750000000000085      12.775000000000009      32.850000000000009
    68   1      5.4750000000000085      12.775000000000009      36.500000000000007
    69   1      5.4750000000000085      12.775000000000009      40.150000000000006
    70   1      5.4750000000000085      12.775000000000009      43.800000000000011
    71   1      5.4750000000000085      12.775000000000009       47.45000000000001
    72   1      5.4750000000000085      12.775000000000009      51.100000000000009
    73   1      5.4750000000000085      12.775000000000009      54.750000000000014
    74   1      5.4750000000000085      12.775000000000009      58.400000000000006
    75   1      5.4750000000000085      12.775000000000009      62.050000000000018
    76   1      5.4750000000000085      12.775000000000009      65.700000000000003
    77   1      5.4750000000000085      14.600000000000009      12.775000000000009
    78   1      5.4750000000000085      14.600000000000009      16.425000000000011
    79   1      5.4750000000000085      16.425000000000011      14.600000000000009
    80   1      5.4750000000000085      14.600000000000009      20.075000000000006
    81   1      5.4750000000000085      16.425000000000011      18.250000000000007
    82   1      5.4750000000000085      14.600000000000009      23.725000000000009
    83   1      5.4750000000000085      16.425000000000011      21.900000000000009
    84   1      5.4750000000000085      14.600000000000009      27.375000000000007
    85   1      5.4750000000000085      16.425000000000011      25.550000000000011
    86   1      5.4750000000000085      14.600000000000009      31.025000000000013
    87   1      5.4750000000000085      16.425000000000011      29.200000000000014
    88   1      5.4750000000000085      14.600000000000009      34.675000000000011
    89   1      5.4750000000000085      16.425000000000011      32.850000000000009
    90   1      5.4750000000000085      14.600000000000009      38.325000000000017
    91   1      5.4750000000000085      16.425000000000011      36.500000000000007
    92   1      5.4750000000000085      14.600000000000009      41.975000000000009
    93   1      5.4750000000000085      16.425000000000011      40.150000000000006
    94   1      5.4750000000000085      14.600000000000009      45.625000000000007
    95   1      5.4750000000000085      16.425000000000011      43.800000000000011
    96   1      5.4750000000000085      14.600000000000009       49.27500000000002
    97   1      5.4750000000000085      16.425000000000011       47.45000000000001
    98   1      5.4750000000000085      14.600000000000009      52.925000000000011
    99   1      5.4750000000000085      16.425000000000011      51.100000000000009
   100   1      5.4750000000000085      14.600000000000009      56.575000000000017
   101   1      5.4750000000000085      16.425000000000011      54.750000000000014
   102   1      5.4750000000000085      14.600000000000009      60.225000000000009
   103   1      5.4750000000000085      16.425000000000011      58.400000000000006
   104   1      5.4750000000000085      14.600000000000009      63.875000000000021
   105   1      5.4750000000000085      16.425000000000011      62.050000000000018
   106   1      5.4750000000000085      14.600000000000009      67.525000000000006
   107   1      5.4750000000000085      16.425000000000011      65.700000000000003
   108   1      5.4750000000000085      18.250000000000007      12.775000000000009
   109   1      5.4750000000000085      18.250000000000007      16.425000000000011
   110   1      5.4750000000000085      20.075000000000006      14.600000000000009
   111   1      5.4750000000000085      18.250000000000007      20.075000000000006
   112   1      5.4750000000000085      20.075000000000006      18.250000000000007
   113   1      5.4750000000000085      18.250000000000007      23.725000000000009
   114   1      5.4750000000000085      20.075000000000006      21.900000000000009
   115   1      5.4750000000000085      18.250000000000007      27.375000000000007
   116   1      5.4750000000000085      20.075000000000006      25.550000000000011
   117   1      5.4750000000000085      18.250000000000007      31.025000000000013
   118   1      5.4750000000000085      20.075000000000006      29.200000000000014
   119   1      5.4750000000000085      18.250000000000007      34.675000000000011
   120   1      5.4750000000000085      20.075000000000006      32.850000000000009
   121   1      5.4750000000000085      18.250000000000007      38.325000000000017
   122   1      5.4750000000000085      20.075000000000006      36.500000000000007
   123   1      5.4750000000000085      18.250000000000007      41.975000000000009
   124   1      5.4750000000000085      20.075000000000006      40.150000000000006
   125   1      5.4750000000000085      18.250000000000007      45.625000000000007
   126   1      5.4750000000000085      20.075000000000006      43.800000000000011
   127   1      5.4750000000000085      18.250000000000007       49.27500000000002
   128   1      5.4750000000000085      20.075000000000006       47.45000000000001
   129   1      5.4750000000000085      18.250000000000007      52.925000000000011
   130   1      5.4750000000000085      20.075000000000006      51.100000000000009
   131   1      5.4750000000000085      18.250000000000007      56.575000000000017
   132   1      5.4750000000000085      20.075000000000006      54.750000000000014
   133   1      5.4750000000000085      18.250000000000007      60.225000000000009
   134   1      5.4750000000000085      20.075000000000006      58.400000000000006
   135   1      5.4750000000000085      18.250000000000007      63.875000000000021
   136   1      5.4750000000000085      20.075000000000006      62.050000000000018
   137   1      5.4750000000000085      18.250000000000007      67.525000000000006
   138   1      5.4750000000000085      20.075000000000006      65.700000000000003
   139   1      5.4750000000000085      21.900000000000009      12.775000000000009
   140   1      5.4750000000000085      21.900000000000009      16.425000000000011
   141   1      5.4750000000000085      23.725000000000009      14.600000000000009
   142   1      5.4750000000000085      21.900000000000009      20.075000000000006
   143   1      5.4750000000000085      23.725000000000009      18.250000000000007
   144   1      3.6500000000000061      21.900000000000009      21.900000000000009
   145   1      3.6500000000000061      23.725000000000009      23.725000000000009
   146   1      5.4750000000000085      21.900000000000009      23.725000000000009
   147   1      5.4750000000000085      23.725000000000009      21.900000000000009
   148   1      3.6500000000000061      21.900000000000009      25.550000000000011
   149   1      3.6500000000000061      23.725000000000009      27.375000000000007
   150   1      5.4750000000000085      21.900000000000009      27.375000000000007
   151   1      5.4750000000000085      23.725000000000009      25.550000000000011
   152   1      3.6500000000000061      21.900000000000009      29.200000000000014
   153   1      3.6500000000000061      23.725000000000009      31.025000000000013
   154   1      5.4750000000000085      21.900000000000009      31.025000000000013
   155   1      5.4750000000000085      23.725000000000009      29.200000000000014
   156   1      3.6500000000000061      21.900000000000009      32.850000000000009
   157   1      3.6500000000000061      23.725000000000009      34.675000000000011
   158   1      5.4750000000000085      21.900000000000009      34.675000000000011
   159   1      5.4750000000000085      23.725000000000009      32.850000000000009
   160   1      3.6500000000000061      21.900000000000009      36.500000000000007
   161   1      3.6500000000000061      23.725000000000009      38.325000000000017
   162   1      5.4750000000000085      21.900000000000009      38.325000000000017
   163   1      5.4750000000000085      23.725000000000009      36.500000000000007
   164   1      3.6500000000000061      21.900000000000009      40.150000000000006
   165   1      3.6500000000000061      23.725000000000009      41.975000000000009
   166   1      5.4750000000000085      21.900000000000009      41.975000000000009
   167   1      5.4750000000000085      23.725000000000009      40.150000000000006
   168   1      3.6500000000000061      21.900000000000009      43.800000000000011
   169   1      3.6500000000000061      23.725000000000009      45.625000000000007
   170   1      5.4750000000000085      21.900000000000009      45.625000000000007
   171   1      5.4750000000000085      23.725000000000009      43.800000000000011
   172   1      3.6500000000000061      21.900000000000009       47.45000000000001
   173   1      3.6500000000000061      23.725000000000009       49.27500000000002
   174   1      5.4750000000000085      21.900000000000009       49.27500000000002
   175   1      5.4750000000000085      23.725000000000009       47.45000000000001
   176   1      3.6500000000000061      21.900000000000009      51.100000000000009
   177   1      3.6500000000000061      23.725000000000009      52.925000000000011
   178   1      5.4750000000000085      21.900000000000009      52.925000000000011
   179   1      5.4750000000000085      23.725000000000009      51.100000000000009
   180   1      3.6500000000000061      21.900000000000009      54.750000000000014
   181   1      3.6500000000000061      23.725000000000009      56.575000000000017
   182   1      5.4750000000000085      21.900000000000009      56.575000000000017
   183   1      5.4750000000000085      23.725000000000009      54.750000000000014
   184   1      3.6500000000000061      21.900000000000009      58.400000000000006
   185   1      5.4750000000000085      21.900000000000009      60.225000000000009
   186   1      5.4750000000000085      23.725000000000009      58.400000000000006
   187   1      5.4750000000000085      21.900000000000009      63.875000000000021
   188   1      5.4750000000000085      23.725000000000009      62.050000000000018
   189   1      5.4750000000000085      21.900000000000009      67.525000000000006
   190   1      5.4750000000000085      23.725000000000009      65.700000000000003
   191   1      5.4750000000000085      25.550000000000011      12.775000000000009
   192   1      5.4750000000000085      25.550000000000011      16.425000000000011
   193   1      5.4750000000000085      27.375000000000007      14.600000000000009
   194   1      5.4750000000000085      25.550000000000011      20.075000000000006
   195   1      5.4750000000000085      27.375000000000007      18.250000000000007
   196   1      3.6500000000000061      25.550000000000011      21.900000000000009
   197   1      3.6500000000000061      27.375000000000007      23.725000000000009
   198   1      5.4750000000000085      25.550000000000011      23.725000000000009
   199   1      5.4750000000000085      27.375000000000007      21.900000000000009
   200   1      3.6500000000000061      25.550000000000011      25.550000000000011
   201   1      3.6500000000000061      27.375000000000007      27.375000000000007
   202   1      5.4750000000000085      25.550000000000011      27.375000000000007
   203   1      5.4750000000000085      27.375000000000007      25.550000000000011
   204   1      3.6500000000000061      25.550000000000011      29.200000000000014
   205   1      3.6500000000000061      27.375000000000007      31.025000000000013
   206   1      5.4750000000000085      25.550000000000011      31.025000000000013
   207   1      5.4750000000000085      27.375000000000007      29.200000000000014
   208   1      3.6500000000000061      25.550000000000011      32.850000000000009
   209   1      3.6500000000000061      27.375000000000007      34.675000000000011
   210   1      5.4750000000000085      25.550000000000011      34.675000000000011
   211   1      5.4750000000000085      27.375000000000007      32.850000000000009
   212   1      3.6500000000000061      25.550000000000011      36.500000000000007
   213   1      3.6500000000000061      27.375000000000007      38.325000000000017
   214   1      5.4750000000000085      25.550000000000011      38.325000000000017
   215   1      5.4750000000000085      27.375000000000007      36.500000000000007
   216   1      3.6500000000000061      25.550000000000011      40.150000000000006
   217   1      3.6500000000000061      27.375000000000007      41.975000000000009
   218   1      5.4750000000000085      25.550000000000011      41.975000000000009
   219   1      5.4750000000000085      27.375000000000007      40.150000000000006
   220   1      3.6500000000000061      25.550000000000011      43.800000000000011
   221   1      3.6500000000000061      27.375000000000007      45.625000000000007
   222   1      5.4750000000000085      25.550000000000011      45.625000000000007
   223   1      5.4750000000000085      27.375000000000007      43.800000000000011
   224   1      3.6500000000000061      25.550000000000011       47.45000000000001
   225   1      3.6500000000000061      27.375000000000007       49.27500000000002
   226   1      5.4750000000000085      25.550000000000011       49.27500000000002
   227   1      5.4750000000000085      27.375000000000007       47.45000000000001
   228   1      3.6500000000000061      25.550000000000011      51.100000000000009
   229   1      3.6500000000000061      27.375000000000007      52.925000000000011
   230   1      5.4750000000000085      25.550000000000011      52.925000000000011
   231   1      5.4750000000000085      27.375000000000007      51.100000000000009
   232   1      3.6500000000000061      25.550000000000011      54.750000000000014
   233   1      3.6500000000000061      27.375000000000007      56.575000000000017
   234   1      5.4750000000000085      25.550000000000011      56.575000000000017
   235   1      5.4750000000000085      27.375000000000007      54.750000000000014
   236   1      3.6500000000000061      25.550000000000011      58.400000000000006
   237   1      5.4750000000000085      25.550000000000011      60.225000000000009
   238   1      5.4750000000000085      27.375000000000007      58.400000000000006
   239   1      5.4750000000000085      25.550000000000011      63.875000000000021
   240   1      5.4750000000000085      27.375000000000007      62.050000000000018
   241   1      5.4750000000000085      25.550000000000011      67.525000000000006
   242   1      5.4750000000000085      27.375000000000007      65.700000000000003
   243   1      5.4750000000000085      29.200000000000014      12.775000000000009
   244   1      5.4750000000000085      29.200000000000014      16.425000000000011
   245   1      5.4750000000000085      31.025000000000013      14.600000000000009
   246   1      5.4750000000000085      29.200000000000014      20.075000000000006
   247   1      5.4750000000000085      31.025000000000013      18.250000000000007
   248   1      3.6500000000000061      29.200000000000014      21.900000000000009
   249   1      3.6500000000000061      31.025000000000013      23.725000000000009
   250   1      5.4750000000000085      29.200000000000014      23.725000000000009
   251   1      5.4750000000000085      31.025000000000013      21.900000000000009
   252   1      3.6500000000000061      29.200000000000014      25.550000000000011
   253   1      3.6500000000000061      31.025000000000013      27.375000000000007
   254   1      5.4750000000000085      29.200000000000014      27.375000000000007
   255   1      5.4750000000000085      31.025000000000013      25.550000000000011
   256   1      3.6500000000000061      29.200000000000014      29.200000000000014
   257   1      3.6500000000000061      31.025000000000013      31.025000000000013
   258   1      5.4750000000000085      29.200000000000014      31.025000000000013
   259   1      5.4750000000000085      31.025000000000013      29.200000000000014
   260   1      3.6500000000000061      29.200000000000014      32.850000000000009
   261   1      3.6500000000000061      31.025000000000013      34.675000000000011
   262   1      5.4750000000000085      29.200000000000014      34.675000000000011
   263   1      5.4750000000000085      31.025000000000013      32.850000000000009
   264   1      3.6500000000000061      29.200000000000014      36.500000000000007
   265   1      3.6500000000000061      31.025000000000013      38.325000000000017
   266   1      5.4750000000000085      29.200000000000014      38.325000000000017
   267   1      5.4750000000000085      31.025000000000013      36.500000000000007
   268   1      3.6500000000000061      29.200000000000014      40.150000000000006
   269   1      3.6500000000000061      31.025000000000013      41.975000000000009
   270   1      5.4750000000000085      29.200000000000014      41.975000000000009
   271   1      5.4750000000000085      31.025000000000013      40.150000000000006
   272   1      3.6500000000000061      29.200000000000014      43.800000000000011
   273   1      3.6500000000000061      31.025000000000013      45.625000000000007
   274   1      5.4750000000000085      29.200000000000014      45.625000000000007
   275   1      5.4750000000000085      31.025000000000013      43.800000000000011
   276   1      3.6500000000000061      29.200000000000014       47.45000000000001
   277   1      3.6500000000000061      31.025000000000013       49.27500000000002
   278   1      5.4750000000000085      29.200000000000014       49.27500000000002
   279   1      5.4750000000000085      31.025000000000013       47.45000000000001
   280   1      3.6500000000000061      29.200000000000014      51.100000000000009
   281   1      3.6500000000000061      31.025000000000013      52.925000000000011
   282   1      5.4750000000000085      29.200000000000014      52.925000000000011
   283   1      5.4750000000000085      31.025000000000013      51.100000000000009
   284   1      3.6500000000000061      29.200000000000014      54.750000000000014
   285   1      3.6500000000000061      31.025000000000013      56.575000000000017
   286   1      5.4750000000000085      29.200000000000014      56.575000000000017
   287   1      5.4750000000000085      31.025000000000013      54.750000000000014
   288   1      3.6500000000000061      29.200000000000014      58.400000000000006
   289   1      5.4750000000000085      29.200000000000014      60.225000000000009
   290   1      5.4750000000000085      31.025000000000013      58.400000000000006
   291   1      5.4750000000000085      29.200000000000014      63.875000000000021
   292   1      5.4750000000000085      31.025000000000013      62.050000000000018
   293   1      5.4750000000000085      29.200000000000014      67.525000000000006
   294   1      5.4750000000000085      31.025000000000013      65.700000000000003
   295   1      5.4750000000000085      32.850000000000009      12.775000000000009
   296   1      5.4750000000000085      32.850000000000009      16.425000000000011
   297   1      5.4750000000000085      34.675000000000011      14.600000000000009
   298   1      5.4750000000000085      32.850000000000009      20.075000000000006
   299   1      5.4750000000000085      34.675000000000011      18.250000000000007
   300   1      3.6500000000000061      32.850000000000009      21.900000000000009
   301   1      3.6500000000000061      34.675000000000011      23.725000000000009
   302   1      5.4750000000000085      32.850000000000009      23.725000000000009
   303   1      5.4750000000000085      34.675000000000011      21.900000000000009
   304   1      3.6500000000000061      32.850000000000009      25.550000000000011
   305   1      3.6500000000000061      34.675000000000011      27.375000000000007
   306   1      5.4750000000000085      32.850000000000009      27.375000000000007
   307   1      5.4750000000000085      34.675000000000011      25.550000000000011
   308   1      3.6500000000000061      32.850000000000009      29.200000000000014
   309   1      3.6500000000000061      34.675000000000011      31.025000000000013
   310   1      5.4750000000000085      32.850000000000009      31.025000000000013
   311   1      5.4750000000000085      34.675000000000011      29.200000000000014
   312   1      3.6500000000000061      32.850000000000009      32.850000000000009
   313   1      3.6500000000000061      34.675000000000011      34.675000000000011
   314   1      5.4750000000000085      32.850000000000009      34.675000000000011
   315   1      5.4750000000000085      34.675000000000011      32.850000000000009
   316   1      3.6500000000000061      32.850000000000009      36.500000000000007
   317   1      3.6500000000000061      34.675000000000011      38.325000000000017
   318   1      5.4750000000000085      32.850000000000009      38.325000000000017
   319   1      5.4750000000000085      34.675000000000011      36.500000000000007
   320   1      3.6500000000000061      32.850000000000009      40.150000000000006
   321   1      3.6500000000000061      34.675000000000011      41.975000000000009
   322   1      5.4750000000000085      32.850000000000009      41.975000000000009
   323   1      5.4750000000000085      34.675000000000011      40.150000000000006
   324   1      3.6500000000000061      32.850000000000009      43.800000000000011
   325   1      3.6500000000000061      34.675000000000011      45.625000000000007
   326   1      5.4750000000000085      32.850000000000009      45.625000000000007
   327   1      5.4750000000000085      34.675000000000011      43.800000000000011
   328   1      3.6500000000000061      32.850000000000009       47.45000000000001
   329   1      3.6500000000000061      34.675000000000011       49.27500000000002
   330   1      5.4750000000000085      32.850000000000009       49.27500000000002
   331   1      5.4750000000000085      34.675000000000011       47.45000000000001
   332   1      3.6500000000000061      32.850000000000009      51.100000000000009
   333   1      3.6500000000000061      34.675000000000011      52.925000000000011
   334   1      5.4750000000000085      32.850000000000009      52.925000000000011
   335   1      5.4750000000000085      34.675000000000011      51.100000000000009
   336   1      3.6500000000000061      32.850000000000009      54.750000000000014
   337   1      3.6500000000000061      34.675000000000011      56.575000000000017
   338   1      5.4750000000000085      32.850000000000009      56.575000000000017
   339   1      5.4750000000000085      34.675000000000011      54.750000000000014
   340   1      3.6500000000000061      32.850000000000009      58.400000000000006
   341   1      5.4750000000000085      32.850000000000009      60.225000000000009
   342   1      5.4750000000000085      34.675000000000011      58.400000000000006
   343   1      5.4750000000000085      32.850000000000009      63.875000000000021
   344   1      5.4750000000000085      34.675000000000011      62.050000000000018
   345   1      5.4750000000000085      32.850000000000009      67.525000000000006
   346   1      5.4750000000000085      34.675000000000011      65.700000000000003
   347   1      5.4750000000000085      36.500000000000007      12.775000000000009
   348   1      5.4750000000000085      36.500000000000007      16.425000000000011
   349   1      5.4750000000000085      38.325000000000017      14.600000000000009
   350   1      5.4750000000000085      36.500000000000007      20.075000000000006
   351   1      5.4750000000000085      38.325000000000017      18.250000000000007
   352   1      3.6500000000000061      36.500000000000007      21.900000000000009
   353   1      3.6500000000000061      38.325000000000017      23.725000000000009
   354   1      5.4750000000000085      36.500000000000007      23.725000000000009
   355   1      5.4750000000000085      38.325000000000017      21.900000000000009
   356   1      3.6500000000000061      36.500000000000007      25.550000000000011
   357   1      3.6500000000000061      38.325000000000017      27.375000000000007
   358   1      5.4750000000000085      36.500000000000007      27.375000000000007