model_files/PdNi/PdNi_30000/PdNi_510/PdNi_510_fcc_29899_temp.data (written by ASE) 

29899 	 atoms 
2  atom types
0.0                      83  xlo xhi
0.0                      83  ylo yhi
0.0                      83  zlo zhi


Atoms 

     1   1      1.8624999999999901      31.662499999999991      33.524999999999991
     2   1      1.8624999999999901      31.662499999999991      37.249999999999993
     3   1      1.8624999999999901      31.662499999999991      40.974999999999994
     4   1      1.8624999999999901      31.662499999999991      44.699999999999996
     5   1      1.8624999999999901      31.662499999999991       48.42499999999999
     6   1      1.8624999999999901      33.524999999999991      31.662499999999991
     7   1      1.8624999999999901      33.524999999999991      35.387499999999989
     8   1      1.8624999999999901      35.387499999999989      33.524999999999991
     9   1      1.8624999999999901      33.524999999999991      39.112499999999997
    10   1      1.8624999999999901      35.387499999999989      37.249999999999993
    11   1      1.8624999999999901      33.524999999999991      42.837499999999999
    12   1      1.8624999999999901      35.387499999999989      40.974999999999994
    13   1      1.8624999999999901      33.524999999999991                 46.5625
    14   1      1.8624999999999901      35.387499999999989      44.699999999999996
    15   1      1.8624999999999901      33.524999999999991      50.287499999999994
    16   1      1.8624999999999901      35.387499999999989       48.42499999999999
    17   1      1.8624999999999901      37.249999999999993      31.662499999999991
    18   1      1.8624999999999901      37.249999999999993      35.387499999999989
    19   1      1.8624999999999901      39.112499999999997      33.524999999999991
    20   1      1.8624999999999901      37.249999999999993      39.112499999999997
    21   1      1.8624999999999901      39.112499999999997      37.249999999999993
    22   1      1.8624999999999901      37.249999999999993      42.837499999999999
    23   1      1.8624999999999901      39.112499999999997      40.974999999999994
    24   1      1.8624999999999901      37.249999999999993                 46.5625
    25   1      1.8624999999999901      39.112499999999997      44.699999999999996
    26   1      1.8624999999999901      37.249999999999993      50.287499999999994
    27   1      1.8624999999999901      39.112499999999997       48.42499999999999
    28   1      1.8624999999999901      40.974999999999994      31.662499999999991
    29   1      1.8624999999999901      40.974999999999994      35.387499999999989
    30   1      1.8624999999999901      42.837499999999999      33.524999999999991
    31   1      1.8624999999999901      40.974999999999994      39.112499999999997
    32   1      1.8624999999999901      42.837499999999999      37.249999999999993
    33   1      82.999999999999986      40.974999999999994      40.974999999999994
    34   1      1.8624999999999901      40.974999999999994      42.837499999999999
    35   1      1.8624999999999901      42.837499999999999      40.974999999999994
    36   1      1.8624999999999901      40.974999999999994                 46.5625
    37   1      1.8624999999999901      42.837499999999999      44.699999999999996
    38   1      1.8624999999999901      40.974999999999994      50.287499999999994
    39   1      1.8624999999999901      42.837499999999999       48.42499999999999
    40   1      1.8624999999999901      44.699999999999996      31.662499999999991
    41   1      1.8624999999999901      44.699999999999996      35.387499999999989
    42   1      1.8624999999999901                 46.5625      33.524999999999991
    43   1      1.8624999999999901      44.699999999999996      39.112499999999997
    44   1      1.8624999999999901                 46.5625      37.249999999999993
    45   1      1.8624999999999901      44.699999999999996      42.837499999999999
    46   1      1.8624999999999901                 46.5625      40.974999999999994
    47   1      1.8624999999999901      44.699999999999996                 46.5625
    48   1      1.8624999999999901                 46.5625      44.699999999999996
    49   1      1.8624999999999901      44.699999999999996      50.287499999999994
    50   1      1.8624999999999901                 46.5625       48.42499999999999
    51   1      1.8624999999999901       48.42499999999999      31.662499999999991
    52   1      1.8624999999999901       48.42499999999999      35.387499999999989
    53   1      1.8624999999999901      50.287499999999994      33.524999999999991
    54   1      1.8624999999999901       48.42499999999999      39.112499999999997
    55   1      1.8624999999999901      50.287499999999994      37.249999999999993
    56   1      1.8624999999999901       48.42499999999999      42.837499999999999
    57   1      1.8624999999999901      50.287499999999994      40.974999999999994
    58   1      1.8624999999999901       48.42499999999999                 46.5625
    59   1      1.8624999999999901      50.287499999999994      44.699999999999996
    60   1      1.8624999999999901       48.42499999999999      50.287499999999994
    61   1      1.8624999999999901      50.287499999999994       48.42499999999999
    62   1      5.5874999999999915      13.037499999999991      14.899999999999991
    63   1      5.5874999999999915      13.037499999999991      18.624999999999993
    64   1      5.5874999999999915      13.037499999999991      22.349999999999994
    65   1      5.5874999999999915      13.037499999999991      26.074999999999992
    66   1      5.5874999999999915      13.037499999999991      29.799999999999994
    67   1      5.5874999999999915      13.037499999999991      33.524999999999991
    68   1      5.5874999999999915      13.037499999999991      37.249999999999993
    69   1      5.5874999999999915      13.037499999999991      40.974999999999994
    70   1      5.5874999999999915      13.037499999999991      44.699999999999996
    71   1      5.5874999999999915      13.037499999999991       48.42499999999999
    72   1      5.5874999999999915      13.037499999999991      52.149999999999991
    73   1      5.5874999999999915      13.037499999999991      55.874999999999993
    74   1      5.5874999999999915      13.037499999999991      59.599999999999994
    75   1      5.5874999999999915      13.037499999999991      63.324999999999989
    76   1      5.5874999999999915      13.037499999999991      67.049999999999997
    77   1      5.5874999999999915      14.899999999999991      13.037499999999991
    78   1      5.5874999999999915      14.899999999999991      16.762499999999992
    79   1      5.5874999999999915      16.762499999999992      14.899999999999991
    80   1      5.5874999999999915      14.899999999999991      20.487499999999994
    81   1      5.5874999999999915      16.762499999999992      18.624999999999993
    82   1      5.5874999999999915      14.899999999999991      24.212499999999991
    83   1      5.5874999999999915      16.762499999999992      22.349999999999994
    84   1      5.5874999999999915      14.899999999999991      27.937499999999993
    85   1      5.5874999999999915      16.762499999999992      26.074999999999992
    86   1      5.5874999999999915      14.899999999999991      31.662499999999991
    87   1      5.5874999999999915      16.762499999999992      29.799999999999994
    88   1      5.5874999999999915      14.899999999999991      35.387499999999989
    89   1      5.5874999999999915      16.762499999999992      33.524999999999991
    90   1      5.5874999999999915      14.899999999999991      39.112499999999997
    91   1      5.5874999999999915      16.762499999999992      37.249999999999993
    92   1      5.5874999999999915      14.899999999999991      42.837499999999999
    93   1      5.5874999999999915      16.762499999999992      40.974999999999994
    94   1      5.5874999999999915      14.899999999999991                 46.5625
    95   1      5.5874999999999915      16.762499999999992      44.699999999999996
    96   1      5.5874999999999915      14.899999999999991      50.287499999999994
    97   1      5.5874999999999915      16.762499999999992       48.42499999999999
    98   1      5.5874999999999915      14.899999999999991      54.012499999999996
    99   1      5.5874999999999915      16.762499999999992      52.149999999999991
   100   1      5.5874999999999915      14.899999999999991      57.737499999999997
   101   1      5.5874999999999915      16.762499999999992      55.874999999999993
   102   1      5.5874999999999915      14.899999999999991      61.462499999999999
   103   1      5.5874999999999915      16.762499999999992      59.599999999999994
   104   1      5.5874999999999915      14.899999999999991      65.187499999999986
   105   1      5.5874999999999915      16.762499999999992      63.324999999999989
   106   1      5.5874999999999915      14.899999999999991      68.912500000000009
   107   1      5.5874999999999915      16.762499999999992      67.049999999999997
   108   1      5.5874999999999915      18.624999999999993      13.037499999999991
   109   1      5.5874999999999915      18.624999999999993      16.762499999999992
   110   1      5.5874999999999915      20.487499999999994      14.899999999999991
   111   1      5.5874999999999915      18.624999999999993      20.487499999999994
   112   1      5.5874999999999915      20.487499999999994      18.624999999999993
   113   1      5.5874999999999915      18.624999999999993      24.212499999999991
   114   1      5.5874999999999915      20.487499999999994      22.349999999999994
   115   1      5.5874999999999915      18.624999999999993      27.937499999999993
   116   1      5.5874999999999915      20.487499999999994      26.074999999999992
   117   1      5.5874999999999915      18.624999999999993      31.662499999999991
   118   1      5.5874999999999915      20.487499999999994      29.799999999999994
   119   1      5.5874999999999915      18.624999999999993      35.387499999999989
   120   1      5.5874999999999915      20.487499999999994      33.524999999999991
   121   1      5.5874999999999915      18.624999999999993      39.112499999999997
   122   1      5.5874999999999915      20.487499999999994      37.249999999999993
   123   1      5.5874999999999915      18.624999999999993      42.837499999999999
   124   1      5.5874999999999915      20.487499999999994      40.974999999999994
   125   1      5.5874999999999915      18.624999999999993                 46.5625
   126   1      5.5874999999999915      20.487499999999994      44.699999999999996
   127   1      5.5874999999999915      18.624999999999993      50.287499999999994
   128   1      5.5874999999999915      20.487499999999994       48.42499999999999
   129   1      5.5874999999999915      18.624999999999993      54.012499999999996
   130   1      5.5874999999999915      20.487499999999994      52.149999999999991
   131   1      5.5874999999999915      18.624999999999993      57.737499999999997
   132   1      5.5874999999999915      20.487499999999994      55.874999999999993
   133   1      5.5874999999999915      18.624999999999993      61.462499999999999
   134   1      5.5874999999999915      20.487499999999994      59.599999999999994
   135   1      5.5874999999999915      18.624999999999993      65.187499999999986
   136   1      5.5874999999999915      20.487499999999994      63.324999999999989
   137   1      5.5874999999999915      18.624999999999993      68.912500000000009
   138   1      5.5874999999999915      20.487499999999994      67.049999999999997
   139   1      5.5874999999999915      22.349999999999994      13.037499999999991
   140   1      5.5874999999999915      22.349999999999994      16.762499999999992
   141   1      5.5874999999999915      24.212499999999991      14.899999999999991
   142   1      5.5874999999999915      22.349999999999994      20.487499999999994
   143   1      5.5874999999999915      24.212499999999991      18.624999999999993
   144   1      3.7249999999999948      22.349999999999994      22.349999999999994
   145   1      3.7249999999999948      24.212499999999991      24.212499999999991
   146   1      5.5874999999999915      22.349999999999994      24.212499999999991
   147   1      5.5874999999999915      24.212499999999991      22.349999999999994
   148   1      3.7249999999999948      22.349999999999994      26.074999999999992
   149   1      3.7249999999999948      24.212499999999991      27.937499999999993
   150   1      5.5874999999999915      22.349999999999994      27.937499999999993
   151   1      5.5874999999999915      24.212499999999991      26.074999999999992
   152   1      3.7249999999999948      22.349999999999994      29.799999999999994
   153   1      3.7249999999999948      24.212499999999991      31.662499999999991
   154   1      5.5874999999999915      22.349999999999994      31.662499999999991
   155   1      5.5874999999999915      24.212499999999991      29.799999999999994
   156   1      3.7249999999999948      22.349999999999994      33.524999999999991
   157   1      3.7249999999999948      24.212499999999991      35.387499999999989
   158   1      5.5874999999999915      22.349999999999994      35.387499999999989
   159   1      5.5874999999999915      24.212499999999991      33.524999999999991
   160   1      3.7249999999999948      22.349999999999994      37.249999999999993
   161   1      3.7249999999999948      24.212499999999991      39.112499999999997
   162   1      5.5874999999999915      22.349999999999994      39.112499999999997
   163   1      5.5874999999999915      24.212499999999991      37.249999999999993
   164   1      3.7249999999999948      22.349999999999994      40.974999999999994
   165   1      3.7249999999999948      24.212499999999991      42.837499999999999
   166   1      5.5874999999999915      22.349999999999994      42.837499999999999
   167   1      5.5874999999999915      24.212499999999991      40.974999999999994
   168   1      3.7249999999999948      22.349999999999994      44.699999999999996
   169   1      3.7249999999999948      24.212499999999991                 46.5625
   170   1      5.5874999999999915      22.349999999999994                 46.5625
   171   1      5.5874999999999915      24.212499999999991      44.699999999999996
   172   1      3.7249999999999948      22.349999999999994       48.42499999999999
   173   1      3.7249999999999948      24.212499999999991      50.287499999999994
   174   1      5.5874999999999915      22.349999999999994      50.287499999999994
   175   1      5.5874999999999915      24.212499999999991       48.42499999999999
   176   1      3.7249999999999948      22.349999999999994      52.149999999999991
   177   1      3.7249999999999948      24.212499999999991      54.012499999999996
   178   1      5.5874999999999915      22.349999999999994      54.012499999999996
   179   1      5.5874999999999915      24.212499999999991      52.149999999999991
   180   1      3.7249999999999948      22.349999999999994      55.874999999999993
   181   1      3.7249999999999948      24.212499999999991      57.737499999999997
   182   1      5.5874999999999915      22.349999999999994      57.737499999999997
   183   1      5.5874999999999915      24.212499999999991      55.874999999999993
   184   1      3.7249999999999948      22.349999999999994      59.599999999999994
   185   1      5.5874999999999915      22.349999999999994      61.462499999999999
   186   1      5.5874999999999915      24.212499999999991      59.599999999999994
   187   1      5.5874999999999915      22.349999999999994      65.187499999999986
   188   1      5.5874999999999915      24.212499999999991      63.324999999999989
   189   1      5.5874999999999915      22.349999999999994      68.912500000000009
   190   1      5.5874999999999915      24.212499999999991      67.049999999999997
   191   1      5.5874999999999915      26.074999999999992      13.037499999999991
   192   1      5.5874999999999915      26.074999999999992      16.762499999999992
   193   1      5.5874999999999915      27.937499999999993      14.899999999999991
   194   1      5.5874999999999915      26.074999999999992      20.487499999999994
   195   1      5.5874999999999915      27.937499999999993      18.624999999999993
   196   1      3.7249999999999948      26.074999999999992      22.349999999999994
   197   1      3.7249999999999948      27.937499999999993      24.212499999999991
   198   1      5.5874999999999915      26.074999999999992      24.212499999999991
   199   1      5.5874999999999915      27.937499999999993      22.349999999999994
   200   1      3.7249999999999948      26.074999999999992      26.074999999999992
   201   1      3.7249999999999948      27.937499999999993      27.937499999999993
   202   1      5.5874999999999915      26.074999999999992      27.937499999999993
   203   1      5.5874999999999915      27.937499999999993      26.074999999999992
   204   1      3.7249999999999948      26.074999999999992      29.799999999999994
   205   1      3.7249999999999948      27.937499999999993      31.662499999999991
   206   1      5.5874999999999915      26.074999999999992      31.662499999999991
   207   1      5.5874999999999915      27.937499999999993      29.799999999999994
   208   1      3.7249999999999948      26.074999999999992      33.524999999999991
   209   1      3.7249999999999948      27.937499999999993      35.387499999999989
   210   1      5.5874999999999915      26.074999999999992      35.387499999999989
   211   1      5.5874999999999915      27.937499999999993      33.524999999999991
   212   1      3.7249999999999948      26.074999999999992      37.249999999999993
   213   1      3.7249999999999948      27.937499999999993      39.112499999999997
   214   1      5.5874999999999915      26.074999999999992      39.112499999999997
   215   1      5.5874999999999915      27.937499999999993      37.249999999999993
   216   1      3.7249999999999948      26.074999999999992      40.974999999999994
   217   1      3.7249999999999948      27.937499999999993      42.837499999999999
   218   1      5.5874999999999915      26.074999999999992      42.837499999999999
   219   1      5.5874999999999915      27.937499999999993      40.974999999999994
   220   1      3.7249999999999948      26.074999999999992      44.699999999999996
   221   1      3.7249999999999948      27.937499999999993                 46.5625
   222   1      5.5874999999999915      26.074999999999992                 46.5625
   223   1      5.5874999999999915      27.937499999999993      44.699999999999996
   224   1      3.7249999999999948      26.074999999999992       48.42499999999999
   225   1      3.7249999999999948      27.937499999999993      50.287499999999994
   226   1      5.5874999999999915      26.074999999999992      50.287499999999994
   227   1      5.5874999999999915      27.937499999999993       48.42499999999999
   228   1      3.7249999999999948      26.074999999999992      52.149999999999991
   229   1      3.7249999999999948      27.937499999999993      54.012499999999996
   230   1      5.5874999999999915      26.074999999999992      54.012499999999996
   231   1      5.5874999999999915      27.937499999999993      52.149999999999991
   232   1      3.7249999999999948      26.074999999999992      55.874999999999993
   233   1      3.7249999999999948      27.937499999999993      57.737499999999997
   234   1      5.5874999999999915      26.074999999999992      57.737499999999997
   235   1      5.5874999999999915      27.937499999999993      55.874999999999993
   236   1      3.7249999999999948      26.074999999999992      59.599999999999994
   237   1      5.5874999999999915      26.074999999999992      61.462499999999999
   238   1      5.5874999999999915      27.937499999999993      59.599999999999994
   239   1      5.5874999999999915      26.074999999999992      65.187499999999986
   240   1      5.5874999999999915      27.937499999999993      63.324999999999989
   241   1      5.5874999999999915      26.074999999999992      68.912500000000009
   242   1      5.5874999999999915      27.937499999999993      67.049999999999997
   243   1      5.5874999999999915      29.799999999999994      13.037499999999991
   244   1      5.5874999999999915      29.799999999999994      16.762499999999992
   245   1      5.5874999999999915      31.662499999999991      14.899999999999991
   246   1      5.5874999999999915      29.799999999999994      20.487499999999994
   247   1      5.5874999999999915      31.662499999999991      18.624999999999993
   248   1      3.7249999999999948      29.799999999999994      22.349999999999994
   249   1      3.7249999999999948      31.662499999999991      24.212499999999991
   250   1      5.5874999999999915      29.799999999999994      24.212499999999991
   251   1      5.5874999999999915      31.662499999999991      22.349999999999994
   252   1      3.7249999999999948      29.799999999999994      26.074999999999992
   253   1      3.7249999999999948      31.662499999999991      27.937499999999993
   254   1      5.5874999999999915      29.799999999999994      27.937499999999993
   255   1      5.5874999999999915      31.662499999999991      26.074999999999992
   256   1      3.7249999999999948      29.799999999999994      29.799999999999994
   257   1      3.7249999999999948      31.662499999999991      31.662499999999991
   258   1      5.5874999999999915      29.799999999999994      31.662499999999991
   259   1      5.5874999999999915      31.662499999999991      29.799999999999994
   260   1      3.7249999999999948      29.799999999999994      33.524999999999991
   261   1      3.7249999999999948      31.662499999999991      35.387499999999989
   262   1      5.5874999999999915      29.799999999999994      35.387499999999989
   263   1      5.5874999999999915      31.662499999999991      33.524999999999991
   264   1      3.7249999999999948      29.799999999999994      37.249999999999993
   265   1      3.7249999999999948      31.662499999999991      39.112499999999997
   266   1      5.5874999999999915      29.799999999999994      39.112499999999997
   267   1      5.5874999999999915      31.662499999999991      37.249999999999993
   268   1      3.7249999999999948      29.799999999999994      40.974999999999994
   269   1      3.7249999999999948      31.662499999999991      42.837499999999999
   270   1      5.5874999999999915      29.799999999999994      42.837499999999999
   271   1      5.5874999999999915      31.662499999999991      40.974999999999994
   272   1      3.7249999999999948      29.799999999999994      44.699999999999996
   273   1      3.7249999999999948      31.662499999999991                 46.5625
   274   1      5.5874999999999915      29.799999999999994                 46.5625
   275   1      5.5874999999999915      31.662499999999991      44.699999999999996
   276   1      3.7249999999999948      29.799999999999994       48.42499999999999
   277   1      3.7249999999999948      31.662499999999991      50.287499999999994
   278   1      5.5874999999999915      29.799999999999994      50.287499999999994
   279   1      5.5874999999999915      31.662499999999991       48.42499999999999
   280   1      3.7249999999999948      29.799999999999994      52.149999999999991
   281   1      3.7249999999999948      31.662499999999991      54.012499999999996
   282   1      5.5874999999999915      29.799999999999994      54.012499999999996
   283   1      5.5874999999999915      31.662499999999991      52.149999999999991
   284   1      3.7249999999999948      29.799999999999994      55.874999999999993
   285   1      3.7249999999999948      31.662499999999991      57.737499999999997
   286   1      5.5874999999999915      29.799999999999994      57.737499999999997
   287   1      5.5874999999999915      31.662499999999991      55.874999999999993
   288   1      3.7249999999999948      29.799999999999994      59.599999999999994
   289   1      5.5874999999999915      29.799999999999994      61.462499999999999
   290   1      5.5874999999999915      31.662499999999991      59.599999999999994
   291   1      5.5874999999999915      29.799999999999994      65.187499999999986
   292   1      5.5874999999999915      31.662499999999991      63.324999999999989
   293   1      5.5874999999999915      29.799999999999994      68.912500000000009
   294   1      5.5874999999999915      31.662499999999991      67.049999999999997
   295   1      5.5874999999999915      33.524999999999991      13.037499999999991
   296   1      5.5874999999999915      33.524999999999991      16.762499999999992
   297   1      5.5874999999999915      35.387499999999989      14.899999999999991
   298   1      5.5874999999999915      33.524999999999991      20.487499999999994
   299   1      5.5874999999999915      35.387499999999989      18.624999999999993
   300   1      3.7249999999999948      33.524999999999991      22.349999999999994
   301   1      3.7249999999999948      35.387499999999989      24.212499999999991
   302   1      5.5874999999999915      33.524999999999991      24.212499999999991
   303   1      5.5874999999999915      35.387499999999989      22.349999999999994
   304   1      3.7249999999999948      33.524999999999991      26.074999999999992
   305   1      3.7249999999999948      35.387499999999989      27.937499999999993
   306   1      5.5874999999999915      33.524999999999991      27.937499999999993
   307   1      5.5874999999999915      35.387499999999989      26.074999999999992
   308   1      3.7249999999999948      33.524999999999991      29.799999999999994
   309   1      3.7249999999999948      35.387499999999989      31.662499999999991
   310   1      5.5874999999999915      33.524999999999991      31.662499999999991
   311   1      5.5874999999999915      35.387499999999989      29.799999999999994
   312   1      3.7249999999999948      33.524999999999991      33.524999999999991
   313   1      3.7249999999999948      35.387499999999989      35.387499999999989
   314   1      5.5874999999999915      33.524999999999991      35.387499999999989
   315   1      5.5874999999999915      35.387499999999989      33.524999999999991
   316   1      3.7249999999999948      33.524999999999991      37.249999999999993
   317   1      3.7249999999999948      35.387499999999989      39.112499999999997
   318   1      5.5874999999999915      33.524999999999991      39.112499999999997
   319   1      5.5874999999999915      35.387499999999989      37.249999999999993
   320   1      3.7249999999999948      33.524999999999991      40.974999999999994
   321   1      3.7249999999999948      35.387499999999989      42.837499999999999
   322   1      5.5874999999999915      33.524999999999991      42.837499999999999
   323   1      5.5874999999999915      35.387499999999989      40.974999999999994
   324   1      3.7249999999999948      33.524999999999991      44.699999999999996
   325   1      3.7249999999999948      35.387499999999989                 46.5625
   326   1      5.5874999999999915      33.524999999999991                 46.5625
   327   1      5.5874999999999915      35.387499999999989      44.699999999999996
   328   1      3.7249999999999948      33.524999999999991       48.42499999999999
   329   1      3.7249999999999948      35.387499999999989      50.287499999999994
   330   1      5.5874999999999915      33.524999999999991      50.287499999999994
   331   1      5.5874999999999915      35.387499999999989       48.42499999999999
   332   1      3.7249999999999948      33.524999999999991      52.149999999999991
   333   1      3.7249999999999948      35.387499999999989      54.012499999999996
   334   1      5.5874999999999915      33.524999999999991      54.012499999999996
   335   1      5.5874999999999915      35.387499999999989      52.149999999999991
   336   1      3.7249999999999948      33.524999999999991      55.874999999999993
   337   1      3.7249999999999948      35.387499999999989      57.737499999999997
   338   1      5.5874999999999915      33.524999999999991      57.737499999999997
   339   1      5.5874999999999915      35.387499999999989      55.874999999999993
   340   1      3.7249999999999948      33.524999999999991      59.599999999999994
   341   1      5.5874999999999915      33.524999999999991      61.462499999999999
   342   1      5.5874999999999915      35.387499999999989      59.599999999999994
   343   1      5.5874999999999915      33.524999999999991      65.187499999999986
   344   1      5.5874999999999915      35.387499999999989      63.324999999999989
   345   1      5.5874999999999915      33.524999999999991      68.912500000000009
   346   1      5.5874999999999915      35.387499999999989      67.049999999999997
   347   1      5.5874999999999915      37.249999999999993      13.037499999999991
   348   1      5.5874999999999915      37.249999999999993      16.762499999999992
   349   1      5.5874999999999915      39.112499999999997      14.899999999999991
   350   1      5.5874999999999915      37.249999999999993      20.487499999999994
   351   1      5.5874999999999915      39.112499999999997      18.624999999999993
   352   1      3.7249999999999948      37.249999999999993      22.349999999999994
   353   1      3.7249999999999948      39.112499999999997      24.212499999999991
   354   1      5.5874999999999915      37.249999999999993      24.212499999999991
   355   1      5.5874999999999915      39.112499999999997      22.349999999999994
   356   1      3.7249999999999948      37.249999999999993      26.074999999999992
   357   1      3.7249999999999948      39.112499999999997      27.937499999999993
   358   1      5.5874999999999915      37.249999999999993      27.937499999999993