model_files/PdCo/PdCo_30000/PdCo_541/PdCo_541_fcc_30387_temp.data (written by ASE) 

30387 	 atoms 
2  atom types
0.0                     112  xlo xhi
0.0                     112  ylo yhi
0.0                     112  zlo zhi


Atoms 

     1   1                   1.875                  54.375      56.249999999999993
     2   1                   1.875      56.249999999999993                  54.375
     3   1                       0      56.249999999999993      56.249999999999993
     4   1                   1.875      56.249999999999993                  58.125
     5   1                   1.875                  58.125      56.249999999999993
     6   1      5.6249999999999991                  50.625                    52.5
     7   1      5.6249999999999991                  50.625      56.249999999999993
     8   1      5.6249999999999991                  50.625                      60
     9   1      5.6249999999999991                    52.5                  50.625
    10   1                    3.75                    52.5                    52.5
    11   1                    3.75                  54.375                  54.375
    12   1      5.6249999999999991                    52.5                  54.375
    13   1      5.6249999999999991                  54.375                    52.5
    14   1                    3.75                    52.5      56.249999999999993
    15   1                    3.75                  54.375                  58.125
    16   1      5.6249999999999991                    52.5                  58.125
    17   1      5.6249999999999991                  54.375      56.249999999999993
    18   1                    3.75                    52.5                      60
    19   1      5.6249999999999991                    52.5      61.874999999999993
    20   1      5.6249999999999991                  54.375                      60
    21   1      5.6249999999999991      56.249999999999993                  50.625
    22   1                    3.75      56.249999999999993                    52.5
    23   1                    3.75                  58.125                  54.375
    24   1      5.6249999999999991      56.249999999999993                  54.375
    25   1      5.6249999999999991                  58.125                    52.5
    26   1                    3.75      56.249999999999993      56.249999999999993
    27   1                    3.75                  58.125                  58.125
    28   1      5.6249999999999991      56.249999999999993                  58.125
    29   1      5.6249999999999991                  58.125      56.249999999999993
    30   1                    3.75      56.249999999999993                      60
    31   1      5.6249999999999991      56.249999999999993      61.874999999999993
    32   1      5.6249999999999991                  58.125                      60
    33   1      5.6249999999999991                      60                  50.625
    34   1                    3.75                      60                    52.5
    35   1      5.6249999999999991                      60                  54.375
    36   1      5.6249999999999991      61.874999999999993                    52.5
    37   1                    3.75                      60      56.249999999999993
    38   1      5.6249999999999991                      60                  58.125
    39   1      5.6249999999999991      61.874999999999993      56.249999999999993
    40   1                    3.75                      60                      60
    41   1      5.6249999999999991                      60      61.874999999999993
    42   1      5.6249999999999991      61.874999999999993                      60
    43   1                   9.375                  46.875      48.749999999999993
    44   1                   9.375      44.999999999999993                  54.375
    45   1                   9.375                  46.875                    52.5
    46   1                   9.375      44.999999999999993                  58.125
    47   1                   9.375                  46.875      56.249999999999993
    48   1                   9.375                  46.875                      60
    49   1                   9.375                  46.875      63.749999999999993
    50   1                   9.375      48.749999999999993                  46.875
    51   1                     7.5      48.749999999999993      48.749999999999993
    52   1                     7.5                  50.625                  50.625
    53   1                   9.375      48.749999999999993                  50.625
    54   1                   9.375                  50.625      48.749999999999993
    55   1                     7.5      48.749999999999993                    52.5
    56   1                     7.5                  50.625                  54.375
    57   1                   9.375      48.749999999999993                  54.375
    58   1                   9.375                  50.625                    52.5
    59   1                     7.5      48.749999999999993      56.249999999999993
    60   1                     7.5                  50.625                  58.125
    61   1                   9.375      48.749999999999993                  58.125
    62   1                   9.375                  50.625      56.249999999999993
    63   1                     7.5      48.749999999999993                      60
    64   1                     7.5                  50.625      61.874999999999993
    65   1                   9.375      48.749999999999993      61.874999999999993
    66   1                   9.375                  50.625                      60
    67   1                     7.5      48.749999999999993      63.749999999999993
    68   1                   9.375      48.749999999999993                  65.625
    69   1                   9.375                  50.625      63.749999999999993
    70   1                   9.375                    52.5                  46.875
    71   1                   9.375                  54.375      44.999999999999993
    72   1                     7.5                    52.5      48.749999999999993
    73   1                     7.5                  54.375                  50.625
    74   1                   9.375                    52.5                  50.625
    75   1                   9.375                  54.375      48.749999999999993
    76   1                     7.5                    52.5                    52.5
    77   1                     7.5                  54.375                  54.375
    78   1                   9.375                    52.5                  54.375
    79   1                   9.375                  54.375                    52.5
    80   1                     7.5                    52.5      56.249999999999993
    81   1                     7.5                  54.375                  58.125
    82   1                   9.375                    52.5                  58.125
    83   1                   9.375                  54.375      56.249999999999993
    84   1                     7.5                    52.5                      60
    85   1                     7.5                  54.375      61.874999999999993
    86   1                   9.375                    52.5      61.874999999999993
    87   1                   9.375                  54.375                      60
    88   1                     7.5                    52.5      63.749999999999993
    89   1                   9.375                    52.5                  65.625
    90   1                   9.375                  54.375      63.749999999999993
    91   1                   9.375                  54.375                    67.5
    92   1                   9.375      56.249999999999993                  46.875
    93   1                   9.375                  58.125      44.999999999999993
    94   1                     7.5      56.249999999999993      48.749999999999993
    95   1                     7.5                  58.125                  50.625
    96   1                   9.375      56.249999999999993                  50.625
    97   1                   9.375                  58.125      48.749999999999993
    98   1                     7.5      56.249999999999993                    52.5
    99   1                     7.5                  58.125                  54.375
   100   1                   9.375      56.249999999999993                  54.375
   101   1                   9.375                  58.125                    52.5
   102   1                     7.5      56.249999999999993      56.249999999999993
   103   1                     7.5                  58.125                  58.125
   104   1                   9.375      56.249999999999993                  58.125
   105   1                   9.375                  58.125      56.249999999999993
   106   1                     7.5      56.249999999999993                      60
   107   1                     7.5                  58.125      61.874999999999993
   108   1                   9.375      56.249999999999993      61.874999999999993
   109   1                   9.375                  58.125                      60
   110   1                     7.5      56.249999999999993      63.749999999999993
   111   1                   9.375      56.249999999999993                  65.625
   112   1                   9.375                  58.125      63.749999999999993
   113   1                   9.375                  58.125                    67.5
   114   1                   9.375                      60                  46.875
   115   1                     7.5                      60      48.749999999999993
   116   1                     7.5      61.874999999999993                  50.625
   117   1                   9.375                      60                  50.625
   118   1                   9.375      61.874999999999993      48.749999999999993
   119   1                     7.5                      60                    52.5
   120   1                     7.5      61.874999999999993                  54.375
   121   1                   9.375                      60                  54.375
   122   1                   9.375      61.874999999999993                    52.5
   123   1                     7.5                      60      56.249999999999993
   124   1                     7.5      61.874999999999993                  58.125
   125   1                   9.375                      60                  58.125
   126   1                   9.375      61.874999999999993      56.249999999999993
   127   1                     7.5                      60                      60
   128   1                     7.5      61.874999999999993      61.874999999999993
   129   1                   9.375                      60      61.874999999999993
   130   1                   9.375      61.874999999999993                      60
   131   1                     7.5                      60      63.749999999999993
   132   1                   9.375                      60                  65.625
   133   1                   9.375      61.874999999999993      63.749999999999993
   134   1                   9.375      63.749999999999993                  46.875
   135   1                     7.5      63.749999999999993      48.749999999999993
   136   1                   9.375      63.749999999999993                  50.625
   137   1                   9.375                  65.625      48.749999999999993
   138   1                     7.5      63.749999999999993                    52.5
   139   1                   9.375      63.749999999999993                  54.375
   140   1                   9.375                  65.625                    52.5
   141   1                     7.5      63.749999999999993      56.249999999999993
   142   1                   9.375      63.749999999999993                  58.125
   143   1                   9.375                  65.625      56.249999999999993
   144   1                     7.5      63.749999999999993                      60
   145   1                   9.375      63.749999999999993      61.874999999999993
   146   1                   9.375                  65.625                      60
   147   1                     7.5      63.749999999999993      63.749999999999993
   148   1                   9.375      63.749999999999993                  65.625
   149   1                   9.375                  65.625      63.749999999999993
   150   1                   9.375                    67.5                  54.375
   151   1                   9.375                    67.5                  58.125
   152   1                  13.125                  43.125      44.999999999999993
   153   1                  13.125                   41.25                  50.625
   154   1                  13.125                  43.125      48.749999999999993
   155   1      11.249999999999998                  43.125                  54.375
   156   1                  13.125                   41.25                  54.375
   157   1                  13.125                  43.125                    52.5
   158   1      11.249999999999998                  43.125                  58.125
   159   1                  13.125                   41.25                  58.125
   160   1                  13.125                  43.125      56.249999999999993
   161   1                  13.125                   41.25      61.874999999999993
   162   1                  13.125                  43.125                      60
   163   1                  13.125                  43.125      63.749999999999993
   164   1                  13.125                  43.125                    67.5
   165   1                  13.125      44.999999999999993                  43.125
   166   1      11.249999999999998      44.999999999999993      44.999999999999993
   167   1      11.249999999999998                  46.875                  46.875
   168   1                  13.125      44.999999999999993                  46.875
   169   1                  13.125                  46.875      44.999999999999993
   170   1      11.249999999999998      44.999999999999993      48.749999999999993
   171   1      11.249999999999998                  46.875                  50.625
   172   1                  13.125      44.999999999999993                  50.625
   173   1                  13.125                  46.875      48.749999999999993
   174   1      11.249999999999998      44.999999999999993                    52.5
   175   1      11.249999999999998                  46.875                  54.375
   176   1                  13.125      44.999999999999993                  54.375
   177   1                  13.125                  46.875                    52.5
   178   1      11.249999999999998      44.999999999999993      56.249999999999993
   179   1      11.249999999999998                  46.875                  58.125
   180   1                  13.125      44.999999999999993                  58.125
   181   1                  13.125                  46.875      56.249999999999993
   182   1      11.249999999999998      44.999999999999993                      60
   183   1      11.249999999999998                  46.875      61.874999999999993
   184   1                  13.125      44.999999999999993      61.874999999999993
   185   1                  13.125                  46.875                      60
   186   1      11.249999999999998      44.999999999999993      63.749999999999993
   187   1      11.249999999999998                  46.875                  65.625
   188   1                  13.125      44.999999999999993                  65.625
   189   1                  13.125                  46.875      63.749999999999993
   190   1      11.249999999999998      44.999999999999993                    67.5
   191   1                  13.125      44.999999999999993                  69.375
   192   1                  13.125                  46.875                    67.5
   193   1                  13.125      48.749999999999993                  43.125
   194   1                  13.125                  50.625                   41.25
   195   1      11.249999999999998      48.749999999999993      44.999999999999993
   196   1      11.249999999999998                  50.625                  46.875
   197   1                  13.125      48.749999999999993                  46.875
   198   1                  13.125                  50.625      44.999999999999993
   199   1      11.249999999999998      48.749999999999993      48.749999999999993
   200   1      11.249999999999998                  50.625                  50.625
   201   1                  13.125      48.749999999999993                  50.625
   202   1                  13.125                  50.625      48.749999999999993
   203   1      11.249999999999998      48.749999999999993                    52.5
   204   1      11.249999999999998                  50.625                  54.375
   205   1                  13.125      48.749999999999993                  54.375
   206   1                  13.125                  50.625                    52.5
   207   1      11.249999999999998      48.749999999999993      56.249999999999993
   208   1      11.249999999999998                  50.625                  58.125
   209   1                  13.125      48.749999999999993                  58.125
   210   1                  13.125                  50.625      56.249999999999993
   211   1      11.249999999999998      48.749999999999993                      60
   212   1      11.249999999999998                  50.625      61.874999999999993
   213   1                  13.125      48.749999999999993      61.874999999999993
   214   1                  13.125                  50.625                      60
   215   1      11.249999999999998      48.749999999999993      63.749999999999993
   216   1      11.249999999999998                  50.625                  65.625
   217   1                  13.125      48.749999999999993                  65.625
   218   1                  13.125                  50.625      63.749999999999993
   219   1      11.249999999999998      48.749999999999993                    67.5
   220   1                  13.125      48.749999999999993                  69.375
   221   1                  13.125                  50.625                    67.5
   222   1                  13.125                  50.625                   71.25
   223   1      11.249999999999998                  54.375                  43.125
   224   1                  13.125                    52.5                  43.125
   225   1                  13.125                  54.375                   41.25
   226   1      11.249999999999998                    52.5      44.999999999999993
   227   1      11.249999999999998                  54.375                  46.875
   228   1                  13.125                    52.5                  46.875
   229   1                  13.125                  54.375      44.999999999999993
   230   1      11.249999999999998                    52.5      48.749999999999993
   231   1      11.249999999999998                  54.375                  50.625
   232   1                  13.125                    52.5                  50.625
   233   1                  13.125                  54.375      48.749999999999993
   234   1      11.249999999999998                    52.5                    52.5
   235   1      11.249999999999998                  54.375                  54.375
   236   1                  13.125                    52.5                  54.375
   237   1                  13.125                  54.375                    52.5
   238   1      11.249999999999998                    52.5      56.249999999999993
   239   1      11.249999999999998                  54.375                  58.125
   240   1                  13.125                    52.5                  58.125
   241   1                  13.125                  54.375      56.249999999999993
   242   1      11.249999999999998                    52.5                      60
   243   1      11.249999999999998                  54.375      61.874999999999993
   244   1                  13.125                    52.5      61.874999999999993
   245   1                  13.125                  54.375                      60
   246   1      11.249999999999998                    52.5      63.749999999999993
   247   1      11.249999999999998                  54.375                  65.625
   248   1                  13.125                    52.5                  65.625
   249   1                  13.125                  54.375      63.749999999999993
   250   1      11.249999999999998                    52.5                    67.5
   251   1      11.249999999999998                  54.375                  69.375
   252   1                  13.125                    52.5                  69.375
   253   1                  13.125                  54.375                    67.5
   254   1                  13.125                  54.375                   71.25
   255   1      11.249999999999998                  58.125                  43.125
   256   1                  13.125      56.249999999999993                  43.125
   257   1                  13.125                  58.125                   41.25
   258   1      11.249999999999998      56.249999999999993      44.999999999999993
   259   1      11.249999999999998                  58.125                  46.875
   260   1                  13.125      56.249999999999993                  46.875
   261   1                  13.125                  58.125      44.999999999999993
   262   1      11.249999999999998      56.249999999999993      48.749999999999993
   263   1      11.249999999999998                  58.125                  50.625
   264   1                  13.125      56.249999999999993                  50.625
   265   1                  13.125                  58.125      48.749999999999993
   266   1      11.249999999999998      56.249999999999993                    52.5
   267   1      11.249999999999998                  58.125                  54.375
   268   1                  13.125      56.249999999999993                  54.375
   269   1                  13.125                  58.125                    52.5
   270   1      11.249999999999998      56.249999999999993      56.249999999999993
   271   1      11.249999999999998                  58.125                  58.125
   272   1                  13.125      56.249999999999993                  58.125
   273   1                  13.125                  58.125      56.249999999999993
   274   1      11.249999999999998      56.249999999999993                      60
   275   1      11.249999999999998                  58.125      61.874999999999993
   276   1                  13.125      56.249999999999993      61.874999999999993
   277   1                  13.125                  58.125                      60
   278   1      11.249999999999998      56.249999999999993      63.749999999999993
   279   1      11.249999999999998                  58.125                  65.625
   280   1                  13.125      56.249999999999993                  65.625
   281   1                  13.125                  58.125      63.749999999999993
   282   1      11.249999999999998      56.249999999999993                    67.5
   283   1      11.249999999999998                  58.125                  69.375
   284   1                  13.125      56.249999999999993                  69.375
   285   1                  13.125                  58.125                    67.5
   286   1                  13.125                  58.125                   71.25
   287   1                  13.125                      60                  43.125
   288   1                  13.125      61.874999999999993                   41.25
   289   1      11.249999999999998                      60      44.999999999999993
   290   1      11.249999999999998      61.874999999999993                  46.875
   291   1                  13.125                      60                  46.875
   292   1                  13.125      61.874999999999993      44.999999999999993
   293   1      11.249999999999998                      60      48.749999999999993
   294   1      11.249999999999998      61.874999999999993                  50.625
   295   1                  13.125                      60                  50.625
   296   1                  13.125      61.874999999999993      48.749999999999993
   297   1      11.249999999999998                      60                    52.5
   298   1      11.249999999999998      61.874999999999993                  54.375
   299   1                  13.125                      60                  54.375
   300   1                  13.125      61.874999999999993                    52.5
   301   1      11.249999999999998                      60      56.249999999999993
   302   1      11.249999999999998      61.874999999999993                  58.125
   303   1                  13.125                      60                  58.125
   304   1                  13.125      61.874999999999993      56.249999999999993
   305   1      11.249999999999998                      60                      60
   306   1      11.249999999999998      61.874999999999993      61.874999999999993
   307   1                  13.125                      60      61.874999999999993
   308   1                  13.125      61.874999999999993                      60
   309   1      11.249999999999998                      60      63.749999999999993
   310   1      11.249999999999998      61.874999999999993                  65.625
   311   1                  13.125                      60                  65.625
   312   1                  13.125      61.874999999999993      63.749999999999993
   313   1      11.249999999999998                      60                    67.5
   314   1                  13.125                      60                  69.375
   315   1                  13.125      61.874999999999993                    67.5
   316   1                  13.125      61.874999999999993                   71.25
   317   1                  13.125      63.749999999999993                  43.125
   318   1      11.249999999999998      63.749999999999993      44.999999999999993
   319   1      11.249999999999998                  65.625                  46.875
   320   1                  13.125      63.749999999999993                  46.875
   321   1                  13.125                  65.625      44.999999999999993
   322   1      11.249999999999998      63.749999999999993      48.749999999999993
   323   1      11.249999999999998                  65.625                  50.625
   324   1                  13.125      63.749999999999993                  50.625
   325   1                  13.125                  65.625      48.749999999999993
   326   1      11.249999999999998      63.749999999999993                    52.5
   327   1      11.249999999999998                  65.625                  54.375
   328   1                  13.125      63.749999999999993                  54.375
   329   1                  13.125                  65.625                    52.5
   330   1      11.249999999999998      63.749999999999993      56.249999999999993
   331   1      11.249999999999998                  65.625                  58.125
   332   1                  13.125      63.749999999999993                  58.125
   333   1                  13.125                  65.625      56.249999999999993
   334   1      11.249999999999998      63.749999999999993                      60
   335   1      11.249999999999998                  65.625      61.874999999999993
   336   1                  13.125      63.749999999999993      61.874999999999993
   337   1                  13.125                  65.625                      60
   338   1      11.249999999999998      63.749999999999993      63.749999999999993
   339   1      11.249999999999998                  65.625                  65.625
   340   1                  13.125      63.749999999999993                  65.625
   341   1                  13.125                  65.625      63.749999999999993
   342   1      11.249999999999998      63.749999999999993                    67.5
   343   1                  13.125      63.749999999999993                  69.375
   344   1                  13.125                  65.625                    67.5
   345   1                  13.125                    67.5                  43.125
   346   1      11.249999999999998                    67.5      44.999999999999993
   347   1                  13.125                    67.5                  46.875
   348   1                  13.125                  69.375      44.999999999999993
   349   1      11.249999999999998                    67.5      48.749999999999993
   350   1                  13.125                    67.5                  50.625
   351   1                  13.125                  69.375      48.749999999999993
   352   1      11.249999999999998                    67.5                    52.5
   353   1      11.249999999999998                  69.375                  54.375
   354   1                  13.125                    67.5                  54.375
   355   1                  13.125                  69.375                    52.5
   356   1      11.249999999999998                    67.5      56.249999999999993
   357   1      11.249999999999998                  69.375                  58.125
   358   1                  13.125                    67.5                  58.125