model_files/PtFe/PtFe_30000/PtFe_221/PtFe_221_fcc_29329_temp.data (written by ASE) 

29329 	 atoms 
2  atom types
0.0                     120  xlo xhi
0.0                     120  ylo yhi
0.0                     120  zlo zhi


Atoms 

     1   1      1.8800000000000094      58.280000000000008      60.160000000000011
     2   1      1.8800000000000094      60.160000000000011      58.280000000000008
     3   1  7.1054273576010019e-15      60.160000000000011      60.160000000000011
     4   1      1.8800000000000094      60.160000000000011      62.039999999999999
     5   1      1.8800000000000094      62.039999999999999      60.160000000000011
     6   1      5.6400000000000077       54.52000000000001      56.400000000000006
     7   1      5.6400000000000077       54.52000000000001      60.160000000000011
     8   1      5.6400000000000077       54.52000000000001      63.919999999999995
     9   1      5.6400000000000077      56.400000000000006       54.52000000000001
    10   1      3.7600000000000122      56.400000000000006      56.400000000000006
    11   1      3.7600000000000122      58.280000000000008      58.280000000000008
    12   1      5.6400000000000077      56.400000000000006      58.280000000000008
    13   1      5.6400000000000077      58.280000000000008      56.400000000000006
    14   1      3.7600000000000122      56.400000000000006      60.160000000000011
    15   1      3.7600000000000122      58.280000000000008      62.039999999999999
    16   1      5.6400000000000077      56.400000000000006      62.039999999999999
    17   1      5.6400000000000077      58.280000000000008      60.160000000000011
    18   1      3.7600000000000122      56.400000000000006      63.919999999999995
    19   1      5.6400000000000077      56.400000000000006      65.799999999999997
    20   1      5.6400000000000077      58.280000000000008      63.919999999999995
    21   1      5.6400000000000077      60.160000000000011       54.52000000000001
    22   1      3.7600000000000122      60.160000000000011      56.400000000000006
    23   1      3.7600000000000122      62.039999999999999      58.280000000000008
    24   1      5.6400000000000077      60.160000000000011      58.280000000000008
    25   1      5.6400000000000077      62.039999999999999      56.400000000000006
    26   1      3.7600000000000122      60.160000000000011      60.160000000000011
    27   1      3.7600000000000122      62.039999999999999      62.039999999999999
    28   1      5.6400000000000077      60.160000000000011      62.039999999999999
    29   1      5.6400000000000077      62.039999999999999      60.160000000000011
    30   1      3.7600000000000122      60.160000000000011      63.919999999999995
    31   1      5.6400000000000077      60.160000000000011      65.799999999999997
    32   1      5.6400000000000077      62.039999999999999      63.919999999999995
    33   1      5.6400000000000077      63.919999999999995       54.52000000000001
    34   1      3.7600000000000122      63.919999999999995      56.400000000000006
    35   1      5.6400000000000077      63.919999999999995      58.280000000000008
    36   1      5.6400000000000077      65.799999999999997      56.400000000000006
    37   1      3.7600000000000122      63.919999999999995      60.160000000000011
    38   1      5.6400000000000077      63.919999999999995      62.039999999999999
    39   1      5.6400000000000077      65.799999999999997      60.160000000000011
    40   1      3.7600000000000122      63.919999999999995      63.919999999999995
    41   1      5.6400000000000077      63.919999999999995      65.799999999999997
    42   1      5.6400000000000077      65.799999999999997      63.919999999999995
    43   1      9.4000000000000128      50.760000000000012      56.400000000000006
    44   1      9.4000000000000128      50.760000000000012      60.160000000000011
    45   1      9.4000000000000128      50.760000000000012      63.919999999999995
    46   1      7.5200000000000093       54.52000000000001       54.52000000000001
    47   1      9.4000000000000128      52.640000000000008       54.52000000000001
    48   1      9.4000000000000128       54.52000000000001      52.640000000000008
    49   1      7.5200000000000093      52.640000000000008      56.400000000000006
    50   1      7.5200000000000093       54.52000000000001      58.280000000000008
    51   1      9.4000000000000128      52.640000000000008      58.280000000000008
    52   1      9.4000000000000128       54.52000000000001      56.400000000000006
    53   1      7.5200000000000093      52.640000000000008      60.160000000000011
    54   1      7.5200000000000093       54.52000000000001      62.039999999999999
    55   1      9.4000000000000128      52.640000000000008      62.039999999999999
    56   1      9.4000000000000128       54.52000000000001      60.160000000000011
    57   1      7.5200000000000093      52.640000000000008      63.919999999999995
    58   1      7.5200000000000093       54.52000000000001      65.799999999999997
    59   1      9.4000000000000128      52.640000000000008      65.799999999999997
    60   1      9.4000000000000128       54.52000000000001      63.919999999999995
    61   1      9.4000000000000128       54.52000000000001      67.680000000000007
    62   1      9.4000000000000128      56.400000000000006      50.760000000000012
    63   1      7.5200000000000093      56.400000000000006      52.640000000000008
    64   1      7.5200000000000093      58.280000000000008       54.52000000000001
    65   1      9.4000000000000128      56.400000000000006       54.52000000000001
    66   1      9.4000000000000128      58.280000000000008      52.640000000000008
    67   1      7.5200000000000093      56.400000000000006      56.400000000000006
    68   1      7.5200000000000093      58.280000000000008      58.280000000000008
    69   1      9.4000000000000128      56.400000000000006      58.280000000000008
    70   1      9.4000000000000128      58.280000000000008      56.400000000000006
    71   1      7.5200000000000093      56.400000000000006      60.160000000000011
    72   1      7.5200000000000093      58.280000000000008      62.039999999999999
    73   1      9.4000000000000128      56.400000000000006      62.039999999999999
    74   1      9.4000000000000128      58.280000000000008      60.160000000000011
    75   1      7.5200000000000093      56.400000000000006      63.919999999999995
    76   1      7.5200000000000093      58.280000000000008      65.799999999999997
    77   1      9.4000000000000128      56.400000000000006      65.799999999999997
    78   1      9.4000000000000128      58.280000000000008      63.919999999999995
    79   1      7.5200000000000093      56.400000000000006      67.680000000000007
    80   1      9.4000000000000128      56.400000000000006      69.560000000000002
    81   1      9.4000000000000128      58.280000000000008      67.680000000000007
    82   1      9.4000000000000128      60.160000000000011      50.760000000000012
    83   1      7.5200000000000093      60.160000000000011      52.640000000000008
    84   1      7.5200000000000093      62.039999999999999       54.52000000000001
    85   1      9.4000000000000128      60.160000000000011       54.52000000000001
    86   1      9.4000000000000128      62.039999999999999      52.640000000000008
    87   1      7.5200000000000093      60.160000000000011      56.400000000000006
    88   1      7.5200000000000093      62.039999999999999      58.280000000000008
    89   1      9.4000000000000128      60.160000000000011      58.280000000000008
    90   1      9.4000000000000128      62.039999999999999      56.400000000000006
    91   1      7.5200000000000093      60.160000000000011      60.160000000000011
    92   1      7.5200000000000093      62.039999999999999      62.039999999999999
    93   1      9.4000000000000128      60.160000000000011      62.039999999999999
    94   1      9.4000000000000128      62.039999999999999      60.160000000000011
    95   1      7.5200000000000093      60.160000000000011      63.919999999999995
    96   1      7.5200000000000093      62.039999999999999      65.799999999999997
    97   1      9.4000000000000128      60.160000000000011      65.799999999999997
    98   1      9.4000000000000128      62.039999999999999      63.919999999999995
    99   1      7.5200000000000093      60.160000000000011      67.680000000000007
   100   1      9.4000000000000128      60.160000000000011      69.560000000000002
   101   1      9.4000000000000128      62.039999999999999      67.680000000000007
   102   1      9.4000000000000128      63.919999999999995      50.760000000000012
   103   1      7.5200000000000093      63.919999999999995      52.640000000000008
   104   1      7.5200000000000093      65.799999999999997       54.52000000000001
   105   1      9.4000000000000128      63.919999999999995       54.52000000000001
   106   1      9.4000000000000128      65.799999999999997      52.640000000000008
   107   1      7.5200000000000093      63.919999999999995      56.400000000000006
   108   1      7.5200000000000093      65.799999999999997      58.280000000000008
   109   1      9.4000000000000128      63.919999999999995      58.280000000000008
   110   1      9.4000000000000128      65.799999999999997      56.400000000000006
   111   1      7.5200000000000093      63.919999999999995      60.160000000000011
   112   1      7.5200000000000093      65.799999999999997      62.039999999999999
   113   1      9.4000000000000128      63.919999999999995      62.039999999999999
   114   1      9.4000000000000128      65.799999999999997      60.160000000000011
   115   1      7.5200000000000093      63.919999999999995      63.919999999999995
   116   1      7.5200000000000093      65.799999999999997      65.799999999999997
   117   1      9.4000000000000128      63.919999999999995      65.799999999999997
   118   1      9.4000000000000128      65.799999999999997      63.919999999999995
   119   1      7.5200000000000093      63.919999999999995      67.680000000000007
   120   1      9.4000000000000128      63.919999999999995      69.560000000000002
   121   1      9.4000000000000128      65.799999999999997      67.680000000000007
   122   1      9.4000000000000128      67.680000000000007       54.52000000000001
   123   1      7.5200000000000093      67.680000000000007      56.400000000000006
   124   1      9.4000000000000128      67.680000000000007      58.280000000000008
   125   1      9.4000000000000128      69.560000000000002      56.400000000000006
   126   1      7.5200000000000093      67.680000000000007      60.160000000000011
   127   1      9.4000000000000128      67.680000000000007      62.039999999999999
   128   1      9.4000000000000128      69.560000000000002      60.160000000000011
   129   1      7.5200000000000093      67.680000000000007      63.919999999999995
   130   1      9.4000000000000128      67.680000000000007      65.799999999999997
   131   1      9.4000000000000128      69.560000000000002      63.919999999999995
   132   1      13.160000000000004      47.000000000000007      56.400000000000006
   133   1      13.160000000000004      47.000000000000007      60.160000000000011
   134   1      13.160000000000004      47.000000000000007      63.919999999999995
   135   1      11.280000000000008      50.760000000000012       54.52000000000001
   136   1      13.160000000000004      48.880000000000003       54.52000000000001
   137   1      13.160000000000004      50.760000000000012      52.640000000000008
   138   1      11.280000000000008      48.880000000000003      56.400000000000006
   139   1      11.280000000000008      50.760000000000012      58.280000000000008
   140   1      13.160000000000004      48.880000000000003      58.280000000000008
   141   1      13.160000000000004      50.760000000000012      56.400000000000006
   142   1      11.280000000000008      48.880000000000003      60.160000000000011
   143   1      11.280000000000008      50.760000000000012      62.039999999999999
   144   1      13.160000000000004      48.880000000000003      62.039999999999999
   145   1      13.160000000000004      50.760000000000012      60.160000000000011
   146   1      11.280000000000008      48.880000000000003      63.919999999999995
   147   1      11.280000000000008      50.760000000000012      65.799999999999997
   148   1      13.160000000000004      48.880000000000003      65.799999999999997
   149   1      13.160000000000004      50.760000000000012      63.919999999999995
   150   1      13.160000000000004      50.760000000000012      67.680000000000007
   151   1      11.280000000000008       54.52000000000001      50.760000000000012
   152   1      13.160000000000004      52.640000000000008      50.760000000000012
   153   1      13.160000000000004       54.52000000000001      48.880000000000003
   154   1      11.280000000000008      52.640000000000008      52.640000000000008
   155   1      11.280000000000008       54.52000000000001       54.52000000000001
   156   1      13.160000000000004      52.640000000000008       54.52000000000001
   157   1      13.160000000000004       54.52000000000001      52.640000000000008
   158   1      11.280000000000008      52.640000000000008      56.400000000000006
   159   1      11.280000000000008       54.52000000000001      58.280000000000008
   160   1      13.160000000000004      52.640000000000008      58.280000000000008
   161   1      13.160000000000004       54.52000000000001      56.400000000000006
   162   1      11.280000000000008      52.640000000000008      60.160000000000011
   163   1      11.280000000000008       54.52000000000001      62.039999999999999
   164   1      13.160000000000004      52.640000000000008      62.039999999999999
   165   1      13.160000000000004       54.52000000000001      60.160000000000011
   166   1      11.280000000000008      52.640000000000008      63.919999999999995
   167   1      11.280000000000008       54.52000000000001      65.799999999999997
   168   1      13.160000000000004      52.640000000000008      65.799999999999997
   169   1      13.160000000000004       54.52000000000001      63.919999999999995
   170   1      11.280000000000008      52.640000000000008      67.680000000000007
   171   1      11.280000000000008       54.52000000000001      69.560000000000002
   172   1      13.160000000000004      52.640000000000008      69.560000000000002
   173   1      13.160000000000004       54.52000000000001      67.680000000000007
   174   1      13.160000000000004       54.52000000000001      71.439999999999998
   175   1      13.160000000000004      56.400000000000006      47.000000000000007
   176   1      11.280000000000008      56.400000000000006      48.880000000000003
   177   1      11.280000000000008      58.280000000000008      50.760000000000012
   178   1      13.160000000000004      56.400000000000006      50.760000000000012
   179   1      13.160000000000004      58.280000000000008      48.880000000000003
   180   1      11.280000000000008      56.400000000000006      52.640000000000008
   181   1      11.280000000000008      58.280000000000008       54.52000000000001
   182   1      13.160000000000004      56.400000000000006       54.52000000000001
   183   1      13.160000000000004      58.280000000000008      52.640000000000008
   184   1      11.280000000000008      56.400000000000006      56.400000000000006
   185   1      11.280000000000008      58.280000000000008      58.280000000000008
   186   1      13.160000000000004      56.400000000000006      58.280000000000008
   187   1      13.160000000000004      58.280000000000008      56.400000000000006
   188   1      11.280000000000008      56.400000000000006      60.160000000000011
   189   1      11.280000000000008      58.280000000000008      62.039999999999999
   190   1      13.160000000000004      56.400000000000006      62.039999999999999
   191   1      13.160000000000004      58.280000000000008      60.160000000000011
   192   1      11.280000000000008      56.400000000000006      63.919999999999995
   193   1      11.280000000000008      58.280000000000008      65.799999999999997
   194   1      13.160000000000004      56.400000000000006      65.799999999999997
   195   1      13.160000000000004      58.280000000000008      63.919999999999995
   196   1      11.280000000000008      56.400000000000006      67.680000000000007
   197   1      11.280000000000008      58.280000000000008      69.560000000000002
   198   1      13.160000000000004      56.400000000000006      69.560000000000002
   199   1      13.160000000000004      58.280000000000008      67.680000000000007
   200   1      11.280000000000008      56.400000000000006      71.439999999999998
   201   1      13.160000000000004      56.400000000000006      73.319999999999993
   202   1      13.160000000000004      58.280000000000008      71.439999999999998
   203   1      13.160000000000004      60.160000000000011      47.000000000000007
   204   1      11.280000000000008      60.160000000000011      48.880000000000003
   205   1      11.280000000000008      62.039999999999999      50.760000000000012
   206   1      13.160000000000004      60.160000000000011      50.760000000000012
   207   1      13.160000000000004      62.039999999999999      48.880000000000003
   208   1      11.280000000000008      60.160000000000011      52.640000000000008
   209   1      11.280000000000008      62.039999999999999       54.52000000000001
   210   1      13.160000000000004      60.160000000000011       54.52000000000001
   211   1      13.160000000000004      62.039999999999999      52.640000000000008
   212   1      11.280000000000008      60.160000000000011      56.400000000000006
   213   1      11.280000000000008      62.039999999999999      58.280000000000008
   214   1      13.160000000000004      60.160000000000011      58.280000000000008
   215   1      13.160000000000004      62.039999999999999      56.400000000000006
   216   1      11.280000000000008      60.160000000000011      60.160000000000011
   217   1      11.280000000000008      62.039999999999999      62.039999999999999
   218   1      13.160000000000004      60.160000000000011      62.039999999999999
   219   1      13.160000000000004      62.039999999999999      60.160000000000011
   220   1      11.280000000000008      60.160000000000011      63.919999999999995
   221   1      11.280000000000008      62.039999999999999      65.799999999999997
   222   1      13.160000000000004      60.160000000000011      65.799999999999997
   223   1      13.160000000000004      62.039999999999999      63.919999999999995
   224   1      11.280000000000008      60.160000000000011      67.680000000000007
   225   1      11.280000000000008      62.039999999999999      69.560000000000002
   226   1      13.160000000000004      60.160000000000011      69.560000000000002
   227   1      13.160000000000004      62.039999999999999      67.680000000000007
   228   1      11.280000000000008      60.160000000000011      71.439999999999998
   229   1      13.160000000000004      60.160000000000011      73.319999999999993
   230   1      13.160000000000004      62.039999999999999      71.439999999999998
   231   1      13.160000000000004      63.919999999999995      47.000000000000007
   232   1      11.280000000000008      63.919999999999995      48.880000000000003
   233   1      11.280000000000008      65.799999999999997      50.760000000000012
   234   1      13.160000000000004      63.919999999999995      50.760000000000012
   235   1      13.160000000000004      65.799999999999997      48.880000000000003
   236   1      11.280000000000008      63.919999999999995      52.640000000000008
   237   1      11.280000000000008      65.799999999999997       54.52000000000001
   238   1      13.160000000000004      63.919999999999995       54.52000000000001
   239   1      13.160000000000004      65.799999999999997      52.640000000000008
   240   1      11.280000000000008      63.919999999999995      56.400000000000006
   241   1      11.280000000000008      65.799999999999997      58.280000000000008
   242   1      13.160000000000004      63.919999999999995      58.280000000000008
   243   1      13.160000000000004      65.799999999999997      56.400000000000006
   244   1      11.280000000000008      63.919999999999995      60.160000000000011
   245   1      11.280000000000008      65.799999999999997      62.039999999999999
   246   1      13.160000000000004      63.919999999999995      62.039999999999999
   247   1      13.160000000000004      65.799999999999997      60.160000000000011
   248   1      11.280000000000008      63.919999999999995      63.919999999999995
   249   1      11.280000000000008      65.799999999999997      65.799999999999997
   250   1      13.160000000000004      63.919999999999995      65.799999999999997
   251   1      13.160000000000004      65.799999999999997      63.919999999999995
   252   1      11.280000000000008      63.919999999999995      67.680000000000007
   253   1      11.280000000000008      65.799999999999997      69.560000000000002
   254   1      13.160000000000004      63.919999999999995      69.560000000000002
   255   1      13.160000000000004      65.799999999999997      67.680000000000007
   256   1      11.280000000000008      63.919999999999995      71.439999999999998
   257   1      13.160000000000004      63.919999999999995      73.319999999999993
   258   1      13.160000000000004      65.799999999999997      71.439999999999998
   259   1      13.160000000000004      67.680000000000007      50.760000000000012
   260   1      11.280000000000008      67.680000000000007      52.640000000000008
   261   1      11.280000000000008      69.560000000000002       54.52000000000001
   262   1      13.160000000000004      67.680000000000007       54.52000000000001
   263   1      13.160000000000004      69.560000000000002      52.640000000000008
   264   1      11.280000000000008      67.680000000000007      56.400000000000006
   265   1      11.280000000000008      69.560000000000002      58.280000000000008
   266   1      13.160000000000004      67.680000000000007      58.280000000000008
   267   1      13.160000000000004      69.560000000000002      56.400000000000006
   268   1      11.280000000000008      67.680000000000007      60.160000000000011
   269   1      11.280000000000008      69.560000000000002      62.039999999999999
   270   1      13.160000000000004      67.680000000000007      62.039999999999999
   271   1      13.160000000000004      69.560000000000002      60.160000000000011
   272   1      11.280000000000008      67.680000000000007      63.919999999999995
   273   1      11.280000000000008      69.560000000000002      65.799999999999997
   274   1      13.160000000000004      67.680000000000007      65.799999999999997
   275   1      13.160000000000004      69.560000000000002      63.919999999999995
   276   1      11.280000000000008      67.680000000000007      67.680000000000007
   277   1      13.160000000000004      67.680000000000007      69.560000000000002
   278   1      13.160000000000004      69.560000000000002      67.680000000000007
   279   1      13.160000000000004      71.439999999999998       54.52000000000001
   280   1      11.280000000000008      71.439999999999998      56.400000000000006
   281   1      13.160000000000004      71.439999999999998      58.280000000000008
   282   1      13.160000000000004      73.319999999999993      56.400000000000006
   283   1      11.280000000000008      71.439999999999998      60.160000000000011
   284   1      13.160000000000004      71.439999999999998      62.039999999999999
   285   1      13.160000000000004      73.319999999999993      60.160000000000011
   286   1      11.280000000000008      71.439999999999998      63.919999999999995
   287   1      13.160000000000004      71.439999999999998      65.799999999999997
   288   1      13.160000000000004      73.319999999999993      63.919999999999995
   289   1      16.920000000000009      43.240000000000009      56.400000000000006
   290   1      16.920000000000009      43.240000000000009      60.160000000000011
   291   1      16.920000000000009      43.240000000000009      63.919999999999995
   292   1      16.920000000000009      47.000000000000007      48.880000000000003
   293   1      15.040000000000006      47.000000000000007       54.52000000000001
   294   1      16.920000000000009      45.120000000000005       54.52000000000001
   295   1      16.920000000000009      47.000000000000007      52.640000000000008
   296   1      15.040000000000006      45.120000000000005      56.400000000000006
   297   1      15.040000000000006      47.000000000000007      58.280000000000008
   298   1      16.920000000000009      45.120000000000005      58.280000000000008
   299   1      16.920000000000009      47.000000000000007      56.400000000000006
   300   1      15.040000000000006      45.120000000000005      60.160000000000011
   301   1      15.040000000000006      47.000000000000007      62.039999999999999
   302   1      16.920000000000009      45.120000000000005      62.039999999999999
   303   1      16.920000000000009      47.000000000000007      60.160000000000011
   304   1      15.040000000000006      45.120000000000005      63.919999999999995
   305   1      15.040000000000006      47.000000000000007      65.799999999999997
   306   1      16.920000000000009      45.120000000000005      65.799999999999997
   307   1      16.920000000000009      47.000000000000007      63.919999999999995
   308   1      16.920000000000009      47.000000000000007      67.680000000000007
   309   1      16.920000000000009      47.000000000000007      71.439999999999998
   310   1      16.920000000000009      48.880000000000003      47.000000000000007
   311   1      15.040000000000006      48.880000000000003      48.880000000000003
   312   1      15.040000000000006      50.760000000000012      50.760000000000012
   313   1      16.920000000000009      48.880000000000003      50.760000000000012
   314   1      16.920000000000009      50.760000000000012      48.880000000000003
   315   1      15.040000000000006      48.880000000000003      52.640000000000008
   316   1      15.040000000000006      50.760000000000012       54.52000000000001
   317   1      16.920000000000009      48.880000000000003       54.52000000000001
   318   1      16.920000000000009      50.760000000000012      52.640000000000008
   319   1      15.040000000000006      48.880000000000003      56.400000000000006
   320   1      15.040000000000006      50.760000000000012      58.280000000000008
   321   1      16.920000000000009      48.880000000000003      58.280000000000008
   322   1      16.920000000000009      50.760000000000012      56.400000000000006
   323   1      15.040000000000006      48.880000000000003      60.160000000000011
   324   1      15.040000000000006      50.760000000000012      62.039999999999999
   325   1      16.920000000000009      48.880000000000003      62.039999999999999
   326   1      16.920000000000009      50.760000000000012      60.160000000000011
   327   1      15.040000000000006      48.880000000000003      63.919999999999995
   328   1      15.040000000000006      50.760000000000012      65.799999999999997
   329   1      16.920000000000009      48.880000000000003      65.799999999999997
   330   1      16.920000000000009      50.760000000000012      63.919999999999995
   331   1      15.040000000000006      48.880000000000003      67.680000000000007
   332   1      15.040000000000006      50.760000000000012      69.560000000000002
   333   1      16.920000000000009      48.880000000000003      69.560000000000002
   334   1      16.920000000000009      50.760000000000012      67.680000000000007
   335   1      15.040000000000006      48.880000000000003      71.439999999999998
   336   1      16.920000000000009      48.880000000000003      73.319999999999993
   337   1      16.920000000000009      50.760000000000012      71.439999999999998
   338   1      15.040000000000006       54.52000000000001      47.000000000000007
   339   1      16.920000000000009      52.640000000000008      47.000000000000007
   340   1      16.920000000000009       54.52000000000001      45.120000000000005
   341   1      15.040000000000006      52.640000000000008      48.880000000000003
   342   1      15.040000000000006       54.52000000000001      50.760000000000012
   343   1      16.920000000000009      52.640000000000008      50.760000000000012
   344   1      16.920000000000009       54.52000000000001      48.880000000000003
   345   1      15.040000000000006      52.640000000000008      52.640000000000008
   346   1      15.040000000000006       54.52000000000001       54.52000000000001
   347   1      16.920000000000009      52.640000000000008       54.52000000000001
   348   1      16.920000000000009       54.52000000000001      52.640000000000008
   349   1      15.040000000000006      52.640000000000008      56.400000000000006
   350   1      15.040000000000006       54.52000000000001      58.280000000000008
   351   1      16.920000000000009      52.640000000000008      58.280000000000008
   352   1      16.920000000000009       54.52000000000001      56.400000000000006
   353   1      15.040000000000006      52.640000000000008      60.160000000000011
   354   1      15.040000000000006       54.52000000000001      62.039999999999999
   355   1      16.920000000000009      52.640000000000008      62.039999999999999
   356   1      16.920000000000009       54.52000000000001      60.160000000000011
   357   1      15.040000000000006      52.640000000000008      63.919999999999995
   358   1      15.040000000000006       54.52000000000001      65.799999999999997