model_files/Fe/Fe_30000/Fe_531/data.Fe_531_fcc_30063 (written by ASE) 

30063 	 atoms 
1  atom types
0.0                      99  xlo xhi
0.0                      99  ylo yhi
0.0                      99  zlo zhi


Atoms 

     1   1      1.4349999999999954      44.484999999999999      47.354999999999997
     2   1      1.4349999999999954      44.484999999999999      50.224999999999994
     3   1      1.4349999999999954      47.354999999999997      44.484999999999999
     4   1      1.4349999999999954      47.354999999999997      47.354999999999997
     5   1      1.4349999999999954      47.354999999999997      50.224999999999994
     6   1      1.4349999999999954      47.354999999999997      53.094999999999999
     7   1      1.4349999999999954      50.224999999999994      44.484999999999999
     8   1      1.4349999999999954      50.224999999999994      47.354999999999997
     9   1      98.999999999999986      48.789999999999992      48.789999999999992
    10   1      1.4349999999999954      50.224999999999994      50.224999999999994
    11   1      1.4349999999999954      50.224999999999994      53.094999999999999
    12   1      1.4349999999999954      53.094999999999999      47.354999999999997
    13   1      1.4349999999999954      53.094999999999999      50.224999999999994
    14   1      4.3049999999999926      41.614999999999995      41.614999999999995
    15   1      4.3049999999999926      41.614999999999995      44.484999999999999
    16   1      4.3049999999999926      41.614999999999995      47.354999999999997
    17   1      4.3049999999999926      41.614999999999995      50.224999999999994
    18   1      4.3049999999999926      41.614999999999995      53.094999999999999
    19   1      4.3049999999999926      41.614999999999995      55.964999999999989
    20   1      4.3049999999999926      44.484999999999999      41.614999999999995
    21   1      4.3049999999999926      44.484999999999999      44.484999999999999
    22   1      2.8699999999999974       43.04999999999999      45.919999999999995
    23   1      4.3049999999999926      44.484999999999999      47.354999999999997
    24   1      2.8699999999999974       43.04999999999999      48.789999999999992
    25   1      4.3049999999999926      44.484999999999999      50.224999999999994
    26   1      2.8699999999999974       43.04999999999999      51.659999999999989
    27   1      4.3049999999999926      44.484999999999999      53.094999999999999
    28   1      4.3049999999999926      44.484999999999999      55.964999999999989
    29   1      4.3049999999999926      47.354999999999997      41.614999999999995
    30   1      2.8699999999999974      45.919999999999995       43.04999999999999
    31   1      4.3049999999999926      47.354999999999997      44.484999999999999
    32   1      2.8699999999999974      45.919999999999995      45.919999999999995
    33   1      4.3049999999999926      47.354999999999997      47.354999999999997
    34   1      2.8699999999999974      45.919999999999995      48.789999999999992
    35   1      4.3049999999999926      47.354999999999997      50.224999999999994
    36   1      2.8699999999999974      45.919999999999995      51.659999999999989
    37   1      4.3049999999999926      47.354999999999997      53.094999999999999
    38   1      2.8699999999999974      45.919999999999995      54.529999999999994
    39   1      4.3049999999999926      47.354999999999997      55.964999999999989
    40   1      4.3049999999999926      50.224999999999994      41.614999999999995
    41   1      2.8699999999999974      48.789999999999992       43.04999999999999
    42   1      4.3049999999999926      50.224999999999994      44.484999999999999
    43   1      2.8699999999999974      48.789999999999992      45.919999999999995
    44   1      4.3049999999999926      50.224999999999994      47.354999999999997
    45   1      2.8699999999999974      48.789999999999992      48.789999999999992
    46   1      4.3049999999999926      50.224999999999994      50.224999999999994
    47   1      2.8699999999999974      48.789999999999992      51.659999999999989
    48   1      4.3049999999999926      50.224999999999994      53.094999999999999
    49   1      2.8699999999999974      48.789999999999992      54.529999999999994
    50   1      4.3049999999999926      50.224999999999994      55.964999999999989
    51   1      4.3049999999999926      53.094999999999999      41.614999999999995
    52   1      2.8699999999999974      51.659999999999989       43.04999999999999
    53   1      4.3049999999999926      53.094999999999999      44.484999999999999
    54   1      2.8699999999999974      51.659999999999989      45.919999999999995
    55   1      4.3049999999999926      53.094999999999999      47.354999999999997
    56   1      2.8699999999999974      51.659999999999989      48.789999999999992
    57   1      4.3049999999999926      53.094999999999999      50.224999999999994
    58   1      2.8699999999999974      51.659999999999989      51.659999999999989
    59   1      4.3049999999999926      53.094999999999999      53.094999999999999
    60   1      2.8699999999999974      51.659999999999989      54.529999999999994
    61   1      4.3049999999999926      53.094999999999999      55.964999999999989
    62   1      4.3049999999999926      55.964999999999989      41.614999999999995
    63   1      4.3049999999999926      55.964999999999989      44.484999999999999
    64   1      2.8699999999999974      54.529999999999994      45.919999999999995
    65   1      4.3049999999999926      55.964999999999989      47.354999999999997
    66   1      2.8699999999999974      54.529999999999994      48.789999999999992
    67   1      4.3049999999999926      55.964999999999989      50.224999999999994
    68   1      2.8699999999999974      54.529999999999994      51.659999999999989
    69   1      4.3049999999999926      55.964999999999989      53.094999999999999
    70   1      4.3049999999999926      55.964999999999989      55.964999999999989
    71   1       7.174999999999998                  35.875      44.484999999999999
    72   1       7.174999999999998                  35.875      47.354999999999997
    73   1       7.174999999999998                  35.875      50.224999999999994
    74   1       7.174999999999998                  35.875      53.094999999999999
    75   1       7.174999999999998      38.744999999999997      38.744999999999997
    76   1       7.174999999999998      38.744999999999997      41.614999999999995
    77   1       7.174999999999998      38.744999999999997      44.484999999999999
    78   1       7.174999999999998      38.744999999999997      47.354999999999997
    79   1      5.7399999999999949      37.309999999999995      48.789999999999992
    80   1       7.174999999999998      38.744999999999997      50.224999999999994
    81   1       7.174999999999998      38.744999999999997      53.094999999999999
    82   1       7.174999999999998      38.744999999999997      55.964999999999989
    83   1       7.174999999999998      38.744999999999997      58.835000000000001
    84   1       7.174999999999998      41.614999999999995      38.744999999999997
    85   1      5.7399999999999949      40.179999999999993      40.179999999999993
    86   1       7.174999999999998      41.614999999999995      41.614999999999995
    87   1      5.7399999999999949      40.179999999999993       43.04999999999999
    88   1       7.174999999999998      41.614999999999995      44.484999999999999
    89   1      5.7399999999999949      40.179999999999993      45.919999999999995
    90   1       7.174999999999998      41.614999999999995      47.354999999999997
    91   1      5.7399999999999949      40.179999999999993      48.789999999999992
    92   1       7.174999999999998      41.614999999999995      50.224999999999994
    93   1      5.7399999999999949      40.179999999999993      51.659999999999989
    94   1       7.174999999999998      41.614999999999995      53.094999999999999
    95   1      5.7399999999999949      40.179999999999993      54.529999999999994
    96   1       7.174999999999998      41.614999999999995      55.964999999999989
    97   1      5.7399999999999949      40.179999999999993      57.399999999999999
    98   1       7.174999999999998      41.614999999999995      58.835000000000001
    99   1       7.174999999999998      44.484999999999999                  35.875
   100   1       7.174999999999998      44.484999999999999      38.744999999999997
   101   1      5.7399999999999949       43.04999999999999      40.179999999999993
   102   1       7.174999999999998      44.484999999999999      41.614999999999995
   103   1      5.7399999999999949       43.04999999999999       43.04999999999999
   104   1       7.174999999999998      44.484999999999999      44.484999999999999
   105   1      5.7399999999999949       43.04999999999999      45.919999999999995
   106   1       7.174999999999998      44.484999999999999      47.354999999999997
   107   1      5.7399999999999949       43.04999999999999      48.789999999999992
   108   1       7.174999999999998      44.484999999999999      50.224999999999994
   109   1      5.7399999999999949       43.04999999999999      51.659999999999989
   110   1       7.174999999999998      44.484999999999999      53.094999999999999
   111   1      5.7399999999999949       43.04999999999999      54.529999999999994
   112   1       7.174999999999998      44.484999999999999      55.964999999999989
   113   1      5.7399999999999949       43.04999999999999      57.399999999999999
   114   1       7.174999999999998      44.484999999999999      58.835000000000001
   115   1       7.174999999999998      44.484999999999999      61.704999999999991
   116   1       7.174999999999998      47.354999999999997                  35.875
   117   1       7.174999999999998      47.354999999999997      38.744999999999997
   118   1      5.7399999999999949      45.919999999999995      40.179999999999993
   119   1       7.174999999999998      47.354999999999997      41.614999999999995
   120   1      5.7399999999999949      45.919999999999995       43.04999999999999
   121   1       7.174999999999998      47.354999999999997      44.484999999999999
   122   1      5.7399999999999949      45.919999999999995      45.919999999999995
   123   1       7.174999999999998      47.354999999999997      47.354999999999997
   124   1      5.7399999999999949      45.919999999999995      48.789999999999992
   125   1       7.174999999999998      47.354999999999997      50.224999999999994
   126   1      5.7399999999999949      45.919999999999995      51.659999999999989
   127   1       7.174999999999998      47.354999999999997      53.094999999999999
   128   1      5.7399999999999949      45.919999999999995      54.529999999999994
   129   1       7.174999999999998      47.354999999999997      55.964999999999989
   130   1      5.7399999999999949      45.919999999999995      57.399999999999999
   131   1       7.174999999999998      47.354999999999997      58.835000000000001
   132   1       7.174999999999998      47.354999999999997      61.704999999999991
   133   1       7.174999999999998      50.224999999999994                  35.875
   134   1      5.7399999999999949      48.789999999999992      37.309999999999995
   135   1       7.174999999999998      50.224999999999994      38.744999999999997
   136   1      5.7399999999999949      48.789999999999992      40.179999999999993
   137   1       7.174999999999998      50.224999999999994      41.614999999999995
   138   1      5.7399999999999949      48.789999999999992       43.04999999999999
   139   1       7.174999999999998      50.224999999999994      44.484999999999999
   140   1      5.7399999999999949      48.789999999999992      45.919999999999995
   141   1       7.174999999999998      50.224999999999994      47.354999999999997
   142   1      5.7399999999999949      48.789999999999992      48.789999999999992
   143   1       7.174999999999998      50.224999999999994      50.224999999999994
   144   1      5.7399999999999949      48.789999999999992      51.659999999999989
   145   1       7.174999999999998      50.224999999999994      53.094999999999999
   146   1      5.7399999999999949      48.789999999999992      54.529999999999994
   147   1       7.174999999999998      50.224999999999994      55.964999999999989
   148   1      5.7399999999999949      48.789999999999992      57.399999999999999
   149   1       7.174999999999998      50.224999999999994      58.835000000000001
   150   1      5.7399999999999949      48.789999999999992      60.269999999999996
   151   1       7.174999999999998      50.224999999999994      61.704999999999991
   152   1       7.174999999999998      53.094999999999999                  35.875
   153   1       7.174999999999998      53.094999999999999      38.744999999999997
   154   1      5.7399999999999949      51.659999999999989      40.179999999999993
   155   1       7.174999999999998      53.094999999999999      41.614999999999995
   156   1      5.7399999999999949      51.659999999999989       43.04999999999999
   157   1       7.174999999999998      53.094999999999999      44.484999999999999
   158   1      5.7399999999999949      51.659999999999989      45.919999999999995
   159   1       7.174999999999998      53.094999999999999      47.354999999999997
   160   1      5.7399999999999949      51.659999999999989      48.789999999999992
   161   1       7.174999999999998      53.094999999999999      50.224999999999994
   162   1      5.7399999999999949      51.659999999999989      51.659999999999989
   163   1       7.174999999999998      53.094999999999999      53.094999999999999
   164   1      5.7399999999999949      51.659999999999989      54.529999999999994
   165   1       7.174999999999998      53.094999999999999      55.964999999999989
   166   1      5.7399999999999949      51.659999999999989      57.399999999999999
   167   1       7.174999999999998      53.094999999999999      58.835000000000001
   168   1       7.174999999999998      53.094999999999999      61.704999999999991
   169   1       7.174999999999998      55.964999999999989      38.744999999999997
   170   1      5.7399999999999949      54.529999999999994      40.179999999999993
   171   1       7.174999999999998      55.964999999999989      41.614999999999995
   172   1      5.7399999999999949      54.529999999999994       43.04999999999999
   173   1       7.174999999999998      55.964999999999989      44.484999999999999
   174   1      5.7399999999999949      54.529999999999994      45.919999999999995
   175   1       7.174999999999998      55.964999999999989      47.354999999999997
   176   1      5.7399999999999949      54.529999999999994      48.789999999999992
   177   1       7.174999999999998      55.964999999999989      50.224999999999994
   178   1      5.7399999999999949      54.529999999999994      51.659999999999989
   179   1       7.174999999999998      55.964999999999989      53.094999999999999
   180   1      5.7399999999999949      54.529999999999994      54.529999999999994
   181   1       7.174999999999998      55.964999999999989      55.964999999999989
   182   1      5.7399999999999949      54.529999999999994      57.399999999999999
   183   1       7.174999999999998      55.964999999999989      58.835000000000001
   184   1       7.174999999999998      58.835000000000001      38.744999999999997
   185   1      5.7399999999999949      57.399999999999999      40.179999999999993
   186   1       7.174999999999998      58.835000000000001      41.614999999999995
   187   1      5.7399999999999949      57.399999999999999       43.04999999999999
   188   1       7.174999999999998      58.835000000000001      44.484999999999999
   189   1      5.7399999999999949      57.399999999999999      45.919999999999995
   190   1       7.174999999999998      58.835000000000001      47.354999999999997
   191   1      5.7399999999999949      57.399999999999999      48.789999999999992
   192   1       7.174999999999998      58.835000000000001      50.224999999999994
   193   1      5.7399999999999949      57.399999999999999      51.659999999999989
   194   1       7.174999999999998      58.835000000000001      53.094999999999999
   195   1      5.7399999999999949      57.399999999999999      54.529999999999994
   196   1       7.174999999999998      58.835000000000001      55.964999999999989
   197   1      5.7399999999999949      57.399999999999999      57.399999999999999
   198   1       7.174999999999998      58.835000000000001      58.835000000000001
   199   1       7.174999999999998      61.704999999999991      44.484999999999999
   200   1       7.174999999999998      61.704999999999991      47.354999999999997
   201   1      5.7399999999999949      60.269999999999996      48.789999999999992
   202   1       7.174999999999998      61.704999999999991      50.224999999999994
   203   1       7.174999999999998      61.704999999999991      53.094999999999999
   204   1      10.044999999999996      30.134999999999994      47.354999999999997
   205   1      10.044999999999996      30.134999999999994      50.224999999999994
   206   1      10.044999999999996      33.005000000000003      38.744999999999997
   207   1      10.044999999999996      33.005000000000003      41.614999999999995
   208   1      10.044999999999996      33.005000000000003      44.484999999999999
   209   1      10.044999999999996      33.005000000000003      47.354999999999997
   210   1      10.044999999999996      33.005000000000003      50.224999999999994
   211   1      10.044999999999996      33.005000000000003      53.094999999999999
   212   1      10.044999999999996      33.005000000000003      55.964999999999989
   213   1      10.044999999999996      33.005000000000003      58.835000000000001
   214   1      10.044999999999996                  35.875                  35.875
   215   1      10.044999999999996                  35.875      38.744999999999997
   216   1      10.044999999999996                  35.875      41.614999999999995
   217   1      8.6099999999999941      34.439999999999991       43.04999999999999
   218   1      10.044999999999996                  35.875      44.484999999999999
   219   1      8.6099999999999941      34.439999999999991      45.919999999999995
   220   1      10.044999999999996                  35.875      47.354999999999997
   221   1      8.6099999999999941      34.439999999999991      48.789999999999992
   222   1      10.044999999999996                  35.875      50.224999999999994
   223   1      8.6099999999999941      34.439999999999991      51.659999999999989
   224   1      10.044999999999996                  35.875      53.094999999999999
   225   1      8.6099999999999941      34.439999999999991      54.529999999999994
   226   1      10.044999999999996                  35.875      55.964999999999989
   227   1      10.044999999999996                  35.875      58.835000000000001
   228   1      10.044999999999996                  35.875      61.704999999999991
   229   1      10.044999999999996      38.744999999999997      33.005000000000003
   230   1      10.044999999999996      38.744999999999997                  35.875
   231   1      8.6099999999999941      37.309999999999995      37.309999999999995
   232   1      10.044999999999996      38.744999999999997      38.744999999999997
   233   1      8.6099999999999941      37.309999999999995      40.179999999999993
   234   1      10.044999999999996      38.744999999999997      41.614999999999995
   235   1      8.6099999999999941      37.309999999999995       43.04999999999999
   236   1      10.044999999999996      38.744999999999997      44.484999999999999
   237   1      8.6099999999999941      37.309999999999995      45.919999999999995
   238   1      10.044999999999996      38.744999999999997      47.354999999999997
   239   1      8.6099999999999941      37.309999999999995      48.789999999999992
   240   1      10.044999999999996      38.744999999999997      50.224999999999994
   241   1      8.6099999999999941      37.309999999999995      51.659999999999989
   242   1      10.044999999999996      38.744999999999997      53.094999999999999
   243   1      8.6099999999999941      37.309999999999995      54.529999999999994
   244   1      10.044999999999996      38.744999999999997      55.964999999999989
   245   1      8.6099999999999941      37.309999999999995      57.399999999999999
   246   1      10.044999999999996      38.744999999999997      58.835000000000001
   247   1      8.6099999999999941      37.309999999999995      60.269999999999996
   248   1      10.044999999999996      38.744999999999997      61.704999999999991
   249   1      10.044999999999996      38.744999999999997      64.574999999999989
   250   1      10.044999999999996      41.614999999999995      33.005000000000003
   251   1      10.044999999999996      41.614999999999995                  35.875
   252   1      8.6099999999999941      40.179999999999993      37.309999999999995
   253   1      10.044999999999996      41.614999999999995      38.744999999999997
   254   1      8.6099999999999941      40.179999999999993      40.179999999999993
   255   1      10.044999999999996      41.614999999999995      41.614999999999995
   256   1      8.6099999999999941      40.179999999999993       43.04999999999999
   257   1      10.044999999999996      41.614999999999995      44.484999999999999
   258   1      8.6099999999999941      40.179999999999993      45.919999999999995
   259   1      10.044999999999996      41.614999999999995      47.354999999999997
   260   1      8.6099999999999941      40.179999999999993      48.789999999999992
   261   1      10.044999999999996      41.614999999999995      50.224999999999994
   262   1      8.6099999999999941      40.179999999999993      51.659999999999989
   263   1      10.044999999999996      41.614999999999995      53.094999999999999
   264   1      8.6099999999999941      40.179999999999993      54.529999999999994
   265   1      10.044999999999996      41.614999999999995      55.964999999999989
   266   1      8.6099999999999941      40.179999999999993      57.399999999999999
   267   1      10.044999999999996      41.614999999999995      58.835000000000001
   268   1      8.6099999999999941      40.179999999999993      60.269999999999996
   269   1      10.044999999999996      41.614999999999995      61.704999999999991
   270   1      10.044999999999996      41.614999999999995      64.574999999999989
   271   1      10.044999999999996      44.484999999999999      33.005000000000003
   272   1      8.6099999999999941       43.04999999999999      34.439999999999991
   273   1      10.044999999999996      44.484999999999999                  35.875
   274   1      8.6099999999999941       43.04999999999999      37.309999999999995
   275   1      10.044999999999996      44.484999999999999      38.744999999999997
   276   1      8.6099999999999941       43.04999999999999      40.179999999999993
   277   1      10.044999999999996      44.484999999999999      41.614999999999995
   278   1      8.6099999999999941       43.04999999999999       43.04999999999999
   279   1      10.044999999999996      44.484999999999999      44.484999999999999
   280   1      8.6099999999999941       43.04999999999999      45.919999999999995
   281   1      10.044999999999996      44.484999999999999      47.354999999999997
   282   1      8.6099999999999941       43.04999999999999      48.789999999999992
   283   1      10.044999999999996      44.484999999999999      50.224999999999994
   284   1      8.6099999999999941       43.04999999999999      51.659999999999989
   285   1      10.044999999999996      44.484999999999999      53.094999999999999
   286   1      8.6099999999999941       43.04999999999999      54.529999999999994
   287   1      10.044999999999996      44.484999999999999      55.964999999999989
   288   1      8.6099999999999941       43.04999999999999      57.399999999999999
   289   1      10.044999999999996      44.484999999999999      58.835000000000001
   290   1      8.6099999999999941       43.04999999999999      60.269999999999996
   291   1      10.044999999999996      44.484999999999999      61.704999999999991
   292   1      8.6099999999999941       43.04999999999999      63.139999999999986
   293   1      10.044999999999996      44.484999999999999      64.574999999999989
   294   1      10.044999999999996      47.354999999999997      30.134999999999994
   295   1      10.044999999999996      47.354999999999997      33.005000000000003
   296   1      8.6099999999999941      45.919999999999995      34.439999999999991
   297   1      10.044999999999996      47.354999999999997                  35.875
   298   1      8.6099999999999941      45.919999999999995      37.309999999999995
   299   1      10.044999999999996      47.354999999999997      38.744999999999997
   300   1      8.6099999999999941      45.919999999999995      40.179999999999993
   301   1      10.044999999999996      47.354999999999997      41.614999999999995
   302   1      8.6099999999999941      45.919999999999995       43.04999999999999
   303   1      10.044999999999996      47.354999999999997      44.484999999999999
   304   1      8.6099999999999941      45.919999999999995      45.919999999999995
   305   1      10.044999999999996      47.354999999999997      47.354999999999997
   306   1      8.6099999999999941      45.919999999999995      48.789999999999992
   307   1      10.044999999999996      47.354999999999997      50.224999999999994
   308   1      8.6099999999999941      45.919999999999995      51.659999999999989
   309   1      10.044999999999996      47.354999999999997      53.094999999999999
   310   1      8.6099999999999941      45.919999999999995      54.529999999999994
   311   1      10.044999999999996      47.354999999999997      55.964999999999989
   312   1      8.6099999999999941      45.919999999999995      57.399999999999999
   313   1      10.044999999999996      47.354999999999997      58.835000000000001
   314   1      8.6099999999999941      45.919999999999995      60.269999999999996
   315   1      10.044999999999996      47.354999999999997      61.704999999999991
   316   1      8.6099999999999941      45.919999999999995      63.139999999999986
   317   1      10.044999999999996      47.354999999999997      64.574999999999989
   318   1      10.044999999999996      47.354999999999997      67.444999999999993
   319   1      10.044999999999996      50.224999999999994      30.134999999999994
   320   1      10.044999999999996      50.224999999999994      33.005000000000003
   321   1      8.6099999999999941      48.789999999999992      34.439999999999991
   322   1      10.044999999999996      50.224999999999994                  35.875
   323   1      8.6099999999999941      48.789999999999992      37.309999999999995
   324   1      10.044999999999996      50.224999999999994      38.744999999999997
   325   1      8.6099999999999941      48.789999999999992      40.179999999999993
   326   1      10.044999999999996      50.224999999999994      41.614999999999995
   327   1      8.6099999999999941      48.789999999999992       43.04999999999999
   328   1      10.044999999999996      50.224999999999994      44.484999999999999
   329   1      8.6099999999999941      48.789999999999992      45.919999999999995
   330   1      10.044999999999996      50.224999999999994      47.354999999999997
   331   1      8.6099999999999941      48.789999999999992      48.789999999999992
   332   1      10.044999999999996      50.224999999999994      50.224999999999994
   333   1      8.6099999999999941      48.789999999999992      51.659999999999989
   334   1      10.044999999999996      50.224999999999994      53.094999999999999
   335   1      8.6099999999999941      48.789999999999992      54.529999999999994
   336   1      10.044999999999996      50.224999999999994      55.964999999999989
   337   1      8.6099999999999941      48.789999999999992      57.399999999999999
   338   1      10.044999999999996      50.224999999999994      58.835000000000001
   339   1      8.6099999999999941      48.789999999999992      60.269999999999996
   340   1      10.044999999999996      50.224999999999994      61.704999999999991
   341   1      8.6099999999999941      48.789999999999992      63.139999999999986
   342   1      10.044999999999996      50.224999999999994      64.574999999999989
   343   1      10.044999999999996      50.224999999999994      67.444999999999993
   344   1      10.044999999999996      53.094999999999999      33.005000000000003
   345   1      8.6099999999999941      51.659999999999989      34.439999999999991
   346   1      10.044999999999996      53.094999999999999                  35.875
   347   1      8.6099999999999941      51.659999999999989      37.309999999999995
   348   1      10.044999999999996      53.094999999999999      38.744999999999997
   349   1      8.6099999999999941      51.659999999999989      40.179999999999993
   350   1      10.044999999999996      53.094999999999999      41.614999999999995
   351   1      8.6099999999999941      51.659999999999989       43.04999999999999
   352   1      10.044999999999996      53.094999999999999      44.484999999999999
   353   1      8.6099999999999941      51.659999999999989      45.919999999999995
   354   1      10.044999999999996      53.094999999999999      47.354999999999997
   355   1      8.6099999999999941      51.659999999999989      48.789999999999992
   356   1      10.044999999999996      53.094999999999999      50.224999999999994
   357   1      8.6099999999999941      51.659999999999989      51.659999999999989
   358   1      10.044999999999996      53.094999999999999      53.094999999999999