model_files/Co/Co_30000/Co_511/data.Co_511_hcp_30527 (written by ASE) 

30527 	 atoms 
1  atom types
0.0                      59  xlo xhi
0.0                      59  ylo yhi
0.0                      59  zlo zhi


Atoms 

     1   1  3.5527136788005009e-15      27.610000000000003      28.865000000000002
     2   1  3.5527136788005009e-15      28.865000000000002      27.610000000000003
     3   1  3.5527136788005009e-15      28.865000000000002      30.120000000000005
     4   1  3.5527136788005009e-15      30.120000000000005      28.865000000000002
     5   1      2.5100000000000051      15.060000000000002      28.865000000000002
     6   1      2.5100000000000051      16.315000000000005      27.610000000000003
     7   1      2.5100000000000051      17.570000000000004      26.355000000000004
     8   1      2.5100000000000051      16.315000000000005      30.120000000000005
     9   1      2.5100000000000051      17.570000000000004      28.865000000000002
    10   1      2.5100000000000051      17.570000000000004                  31.375
    11   1      2.5100000000000051      18.825000000000003      25.100000000000001
    12   1      2.5100000000000051      20.080000000000002      23.845000000000002
    13   1      2.5100000000000051      18.825000000000003      27.610000000000003
    14   1      2.5100000000000051      20.080000000000002      26.355000000000004
    15   1      2.5100000000000051      18.825000000000003      30.120000000000005
    16   1      2.5100000000000051      20.080000000000002      28.865000000000002
    17   1      2.5100000000000051      18.825000000000003      32.630000000000003
    18   1      2.5100000000000051      20.080000000000002                  31.375
    19   1      2.5100000000000051      20.080000000000002      33.885000000000005
    20   1      2.5100000000000051      21.335000000000001                   22.59
    21   1      2.5100000000000051                   22.59      21.335000000000001
    22   1      2.5100000000000051      21.335000000000001      25.100000000000001
    23   1      2.5100000000000051                   22.59      23.845000000000002
    24   1      1.2550000000000026                   22.59      27.610000000000003
    25   1      2.5100000000000051      21.335000000000001      27.610000000000003
    26   1      2.5100000000000051                   22.59      26.355000000000004
    27   1      1.2550000000000026      21.335000000000001      28.865000000000002
    28   1      1.2550000000000026                   22.59      30.120000000000005
    29   1      2.5100000000000051      21.335000000000001      30.120000000000005
    30   1      2.5100000000000051                   22.59      28.865000000000002
    31   1      2.5100000000000051      21.335000000000001      32.630000000000003
    32   1      2.5100000000000051                   22.59                  31.375
    33   1      2.5100000000000051      21.335000000000001      35.140000000000008
    34   1      2.5100000000000051                   22.59      33.885000000000005
    35   1      2.5100000000000051                   22.59      36.395000000000003
    36   1      2.5100000000000051      23.845000000000002      20.080000000000002
    37   1      2.5100000000000051      25.100000000000001      18.825000000000003
    38   1      2.5100000000000051      23.845000000000002                   22.59
    39   1      2.5100000000000051      25.100000000000001      21.335000000000001
    40   1      1.2550000000000026      25.100000000000001      25.100000000000001
    41   1      2.5100000000000051      23.845000000000002      25.100000000000001
    42   1      2.5100000000000051      25.100000000000001      23.845000000000002
    43   1      1.2550000000000026      23.845000000000002      26.355000000000004
    44   1      1.2550000000000026      25.100000000000001      27.610000000000003
    45   1      2.5100000000000051      23.845000000000002      27.610000000000003
    46   1      2.5100000000000051      25.100000000000001      26.355000000000004
    47   1      1.2550000000000026      23.845000000000002      28.865000000000002
    48   1      1.2550000000000026      25.100000000000001      30.120000000000005
    49   1      2.5100000000000051      23.845000000000002      30.120000000000005
    50   1      2.5100000000000051      25.100000000000001      28.865000000000002
    51   1      1.2550000000000026      23.845000000000002                  31.375
    52   1      1.2550000000000026      25.100000000000001      32.630000000000003
    53   1      2.5100000000000051      23.845000000000002      32.630000000000003
    54   1      2.5100000000000051      25.100000000000001                  31.375
    55   1      2.5100000000000051      23.845000000000002      35.140000000000008
    56   1      2.5100000000000051      25.100000000000001      33.885000000000005
    57   1      2.5100000000000051      23.845000000000002      37.650000000000006
    58   1      2.5100000000000051      25.100000000000001      36.395000000000003
    59   1      2.5100000000000051      25.100000000000001      38.905000000000001
    60   1      2.5100000000000051      26.355000000000004      17.570000000000004
    61   1      2.5100000000000051      27.610000000000003      16.315000000000005
    62   1      2.5100000000000051      26.355000000000004      20.080000000000002
    63   1      2.5100000000000051      27.610000000000003      18.825000000000003
    64   1      1.2550000000000026      27.610000000000003                   22.59
    65   1      2.5100000000000051      26.355000000000004                   22.59
    66   1      2.5100000000000051      27.610000000000003      21.335000000000001
    67   1      1.2550000000000026      26.355000000000004      23.845000000000002
    68   1      1.2550000000000026      27.610000000000003      25.100000000000001
    69   1      2.5100000000000051      26.355000000000004      25.100000000000001
    70   1      2.5100000000000051      27.610000000000003      23.845000000000002
    71   1      1.2550000000000026      26.355000000000004      26.355000000000004
    72   1      1.2550000000000026      27.610000000000003      27.610000000000003
    73   1      2.5100000000000051      26.355000000000004      27.610000000000003
    74   1      2.5100000000000051      27.610000000000003      26.355000000000004
    75   1      1.2550000000000026      26.355000000000004      28.865000000000002
    76   1      1.2550000000000026      27.610000000000003      30.120000000000005
    77   1      2.5100000000000051      26.355000000000004      30.120000000000005
    78   1      2.5100000000000051      27.610000000000003      28.865000000000002
    79   1      1.2550000000000026      26.355000000000004                  31.375
    80   1      1.2550000000000026      27.610000000000003      32.630000000000003
    81   1      2.5100000000000051      26.355000000000004      32.630000000000003
    82   1      2.5100000000000051      27.610000000000003                  31.375
    83   1      1.2550000000000026      26.355000000000004      33.885000000000005
    84   1      1.2550000000000026      27.610000000000003      35.140000000000008
    85   1      2.5100000000000051      26.355000000000004      35.140000000000008
    86   1      2.5100000000000051      27.610000000000003      33.885000000000005
    87   1      2.5100000000000051      26.355000000000004      37.650000000000006
    88   1      2.5100000000000051      27.610000000000003      36.395000000000003
    89   1      2.5100000000000051      26.355000000000004      40.160000000000004
    90   1      2.5100000000000051      27.610000000000003      38.905000000000001
    91   1      2.5100000000000051      27.610000000000003      41.414999999999999
    92   1      2.5100000000000051      28.865000000000002      15.060000000000002
    93   1      2.5100000000000051      28.865000000000002      17.570000000000004
    94   1      2.5100000000000051      30.120000000000005      16.315000000000005
    95   1      2.5100000000000051      28.865000000000002      20.080000000000002
    96   1      2.5100000000000051      30.120000000000005      18.825000000000003
    97   1      1.2550000000000026      28.865000000000002      21.335000000000001
    98   1      1.2550000000000026      30.120000000000005                   22.59
    99   1      2.5100000000000051      28.865000000000002                   22.59
   100   1      2.5100000000000051      30.120000000000005      21.335000000000001
   101   1      1.2550000000000026      28.865000000000002      23.845000000000002
   102   1      1.2550000000000026      30.120000000000005      25.100000000000001
   103   1      2.5100000000000051      28.865000000000002      25.100000000000001
   104   1      2.5100000000000051      30.120000000000005      23.845000000000002
   105   1      1.2550000000000026      28.865000000000002      26.355000000000004
   106   1      1.2550000000000026      30.120000000000005      27.610000000000003
   107   1      2.5100000000000051      28.865000000000002      27.610000000000003
   108   1      2.5100000000000051      30.120000000000005      26.355000000000004
   109   1      1.2550000000000026      28.865000000000002      28.865000000000002
   110   1      1.2550000000000026      30.120000000000005      30.120000000000005
   111   1      2.5100000000000051      28.865000000000002      30.120000000000005
   112   1      2.5100000000000051      30.120000000000005      28.865000000000002
   113   1      1.2550000000000026      28.865000000000002                  31.375
   114   1      1.2550000000000026      30.120000000000005      32.630000000000003
   115   1      2.5100000000000051      28.865000000000002      32.630000000000003
   116   1      2.5100000000000051      30.120000000000005                  31.375
   117   1      1.2550000000000026      28.865000000000002      33.885000000000005
   118   1      1.2550000000000026      30.120000000000005      35.140000000000008
   119   1      2.5100000000000051      28.865000000000002      35.140000000000008
   120   1      2.5100000000000051      30.120000000000005      33.885000000000005
   121   1      1.2550000000000026      28.865000000000002      36.395000000000003
   122   1      2.5100000000000051      28.865000000000002      37.650000000000006
   123   1      2.5100000000000051      30.120000000000005      36.395000000000003
   124   1      2.5100000000000051      28.865000000000002      40.160000000000004
   125   1      2.5100000000000051      30.120000000000005      38.905000000000001
   126   1      2.5100000000000051      28.865000000000002      42.670000000000002
   127   1      2.5100000000000051      30.120000000000005      41.414999999999999
   128   1      2.5100000000000051                  31.375      17.570000000000004
   129   1      2.5100000000000051                  31.375      20.080000000000002
   130   1      2.5100000000000051      32.630000000000003      18.825000000000003
   131   1      2.5100000000000051                  31.375                   22.59
   132   1      2.5100000000000051      32.630000000000003      21.335000000000001
   133   1      1.2550000000000026                  31.375      23.845000000000002
   134   1      1.2550000000000026      32.630000000000003      25.100000000000001
   135   1      2.5100000000000051                  31.375      25.100000000000001
   136   1      2.5100000000000051      32.630000000000003      23.845000000000002
   137   1      1.2550000000000026                  31.375      26.355000000000004
   138   1      1.2550000000000026      32.630000000000003      27.610000000000003
   139   1      2.5100000000000051                  31.375      27.610000000000003
   140   1      2.5100000000000051      32.630000000000003      26.355000000000004
   141   1      1.2550000000000026                  31.375      28.865000000000002
   142   1      1.2550000000000026      32.630000000000003      30.120000000000005
   143   1      2.5100000000000051                  31.375      30.120000000000005
   144   1      2.5100000000000051      32.630000000000003      28.865000000000002
   145   1      1.2550000000000026                  31.375                  31.375
   146   1      1.2550000000000026      32.630000000000003      32.630000000000003
   147   1      2.5100000000000051                  31.375      32.630000000000003
   148   1      2.5100000000000051      32.630000000000003                  31.375
   149   1      1.2550000000000026                  31.375      33.885000000000005
   150   1      2.5100000000000051                  31.375      35.140000000000008
   151   1      2.5100000000000051      32.630000000000003      33.885000000000005
   152   1      2.5100000000000051                  31.375      37.650000000000006
   153   1      2.5100000000000051      32.630000000000003      36.395000000000003
   154   1      2.5100000000000051                  31.375      40.160000000000004
   155   1      2.5100000000000051      32.630000000000003      38.905000000000001
   156   1      2.5100000000000051      33.885000000000005      20.080000000000002
   157   1      2.5100000000000051      33.885000000000005                   22.59
   158   1      2.5100000000000051      35.140000000000008      21.335000000000001
   159   1      2.5100000000000051      33.885000000000005      25.100000000000001
   160   1      2.5100000000000051      35.140000000000008      23.845000000000002
   161   1      1.2550000000000026      33.885000000000005      26.355000000000004
   162   1      1.2550000000000026      35.140000000000008      27.610000000000003
   163   1      2.5100000000000051      33.885000000000005      27.610000000000003
   164   1      2.5100000000000051      35.140000000000008      26.355000000000004
   165   1      1.2550000000000026      33.885000000000005      28.865000000000002
   166   1      1.2550000000000026      35.140000000000008      30.120000000000005
   167   1      2.5100000000000051      33.885000000000005      30.120000000000005
   168   1      2.5100000000000051      35.140000000000008      28.865000000000002
   169   1      1.2550000000000026      33.885000000000005                  31.375
   170   1      2.5100000000000051      33.885000000000005      32.630000000000003
   171   1      2.5100000000000051      35.140000000000008                  31.375
   172   1      2.5100000000000051      33.885000000000005      35.140000000000008
   173   1      2.5100000000000051      35.140000000000008      33.885000000000005
   174   1      2.5100000000000051      33.885000000000005      37.650000000000006
   175   1      2.5100000000000051      35.140000000000008      36.395000000000003
   176   1      2.5100000000000051      36.395000000000003                   22.59
   177   1      2.5100000000000051      36.395000000000003      25.100000000000001
   178   1      2.5100000000000051      37.650000000000006      23.845000000000002
   179   1      2.5100000000000051      36.395000000000003      27.610000000000003
   180   1      2.5100000000000051      37.650000000000006      26.355000000000004
   181   1      1.2550000000000026      36.395000000000003      28.865000000000002
   182   1      2.5100000000000051      36.395000000000003      30.120000000000005
   183   1      2.5100000000000051      37.650000000000006      28.865000000000002
   184   1      2.5100000000000051      36.395000000000003      32.630000000000003
   185   1      2.5100000000000051      37.650000000000006                  31.375
   186   1      2.5100000000000051      36.395000000000003      35.140000000000008
   187   1      2.5100000000000051      37.650000000000006      33.885000000000005
   188   1      2.5100000000000051      38.905000000000001      25.100000000000001
   189   1      2.5100000000000051      38.905000000000001      27.610000000000003
   190   1      2.5100000000000051      40.160000000000004      26.355000000000004
   191   1      2.5100000000000051      38.905000000000001      30.120000000000005
   192   1      2.5100000000000051      40.160000000000004      28.865000000000002
   193   1      2.5100000000000051      38.905000000000001      32.630000000000003
   194   1      2.5100000000000051      40.160000000000004                  31.375
   195   1      2.5100000000000051      41.414999999999999      27.610000000000003
   196   1      2.5100000000000051      41.414999999999999      30.120000000000005
   197   1      2.5100000000000051      42.670000000000002      28.865000000000002
   198   1      5.0200000000000031      5.0200000000000031      26.355000000000004
   199   1      5.0200000000000031      5.0200000000000031      28.865000000000002
   200   1      5.0200000000000031      5.0200000000000031                  31.375
   201   1      5.0200000000000031      6.2750000000000057      25.100000000000001
   202   1      5.0200000000000031      7.5300000000000038      23.845000000000002
   203   1      5.0200000000000031      6.2750000000000057      27.610000000000003
   204   1      5.0200000000000031      7.5300000000000038      26.355000000000004
   205   1      5.0200000000000031      6.2750000000000057      30.120000000000005
   206   1      5.0200000000000031      7.5300000000000038      28.865000000000002
   207   1      5.0200000000000031      6.2750000000000057      32.630000000000003
   208   1      5.0200000000000031      7.5300000000000038                  31.375
   209   1      5.0200000000000031      7.5300000000000038      33.885000000000005
   210   1      5.0200000000000031      8.7850000000000037                   22.59
   211   1      5.0200000000000031      10.040000000000003      21.335000000000001
   212   1      5.0200000000000031      8.7850000000000037      25.100000000000001
   213   1      5.0200000000000031      10.040000000000003      23.845000000000002
   214   1      3.7650000000000046      10.040000000000003      27.610000000000003
   215   1      5.0200000000000031      8.7850000000000037      27.610000000000003
   216   1      5.0200000000000031      10.040000000000003      26.355000000000004
   217   1      3.7650000000000046      8.7850000000000037      28.865000000000002
   218   1      3.7650000000000046      10.040000000000003      30.120000000000005
   219   1      5.0200000000000031      8.7850000000000037      30.120000000000005
   220   1      5.0200000000000031      10.040000000000003      28.865000000000002
   221   1      5.0200000000000031      8.7850000000000037      32.630000000000003
   222   1      5.0200000000000031      10.040000000000003                  31.375
   223   1      5.0200000000000031      8.7850000000000037      35.140000000000008
   224   1      5.0200000000000031      10.040000000000003      33.885000000000005
   225   1      5.0200000000000031      10.040000000000003      36.395000000000003
   226   1      5.0200000000000031      11.295000000000002      20.080000000000002
   227   1      5.0200000000000031      12.550000000000004      18.825000000000003
   228   1      5.0200000000000031      11.295000000000002                   22.59
   229   1      5.0200000000000031      12.550000000000004      21.335000000000001
   230   1      3.7650000000000046      12.550000000000004      25.100000000000001
   231   1      5.0200000000000031      11.295000000000002      25.100000000000001
   232   1      5.0200000000000031      12.550000000000004      23.845000000000002
   233   1      3.7650000000000046      11.295000000000002      26.355000000000004
   234   1      3.7650000000000046      12.550000000000004      27.610000000000003
   235   1      5.0200000000000031      11.295000000000002      27.610000000000003
   236   1      5.0200000000000031      12.550000000000004      26.355000000000004
   237   1      3.7650000000000046      11.295000000000002      28.865000000000002
   238   1      3.7650000000000046      12.550000000000004      30.120000000000005
   239   1      5.0200000000000031      11.295000000000002      30.120000000000005
   240   1      5.0200000000000031      12.550000000000004      28.865000000000002
   241   1      3.7650000000000046      11.295000000000002                  31.375
   242   1      3.7650000000000046      12.550000000000004      32.630000000000003
   243   1      5.0200000000000031      11.295000000000002      32.630000000000003
   244   1      5.0200000000000031      12.550000000000004                  31.375
   245   1      5.0200000000000031      11.295000000000002      35.140000000000008
   246   1      5.0200000000000031      12.550000000000004      33.885000000000005
   247   1      5.0200000000000031      11.295000000000002      37.650000000000006
   248   1      5.0200000000000031      12.550000000000004      36.395000000000003
   249   1      5.0200000000000031      12.550000000000004      38.905000000000001
   250   1      5.0200000000000031      13.805000000000003      17.570000000000004
   251   1      5.0200000000000031      15.060000000000002      16.315000000000005
   252   1      5.0200000000000031      13.805000000000003      20.080000000000002
   253   1      5.0200000000000031      15.060000000000002      18.825000000000003
   254   1      3.7650000000000046      15.060000000000002                   22.59
   255   1      5.0200000000000031      13.805000000000003                   22.59
   256   1      5.0200000000000031      15.060000000000002      21.335000000000001
   257   1      3.7650000000000046      13.805000000000003      23.845000000000002
   258   1      3.7650000000000046      15.060000000000002      25.100000000000001
   259   1      5.0200000000000031      13.805000000000003      25.100000000000001
   260   1      5.0200000000000031      15.060000000000002      23.845000000000002
   261   1      3.7650000000000046      13.805000000000003      26.355000000000004
   262   1      3.7650000000000046      15.060000000000002      27.610000000000003
   263   1      5.0200000000000031      13.805000000000003      27.610000000000003
   264   1      5.0200000000000031      15.060000000000002      26.355000000000004
   265   1      3.7650000000000046      13.805000000000003      28.865000000000002
   266   1      3.7650000000000046      15.060000000000002      30.120000000000005
   267   1      5.0200000000000031      13.805000000000003      30.120000000000005
   268   1      5.0200000000000031      15.060000000000002      28.865000000000002
   269   1      3.7650000000000046      13.805000000000003                  31.375
   270   1      3.7650000000000046      15.060000000000002      32.630000000000003
   271   1      5.0200000000000031      13.805000000000003      32.630000000000003
   272   1      5.0200000000000031      15.060000000000002                  31.375
   273   1      3.7650000000000046      13.805000000000003      33.885000000000005
   274   1      3.7650000000000046      15.060000000000002      35.140000000000008
   275   1      5.0200000000000031      13.805000000000003      35.140000000000008
   276   1      5.0200000000000031      15.060000000000002      33.885000000000005
   277   1      5.0200000000000031      13.805000000000003      37.650000000000006
   278   1      5.0200000000000031      15.060000000000002      36.395000000000003
   279   1      5.0200000000000031      13.805000000000003      40.160000000000004
   280   1      5.0200000000000031      15.060000000000002      38.905000000000001
   281   1      5.0200000000000031      15.060000000000002      41.414999999999999
   282   1      5.0200000000000031      16.315000000000005      15.060000000000002
   283   1      5.0200000000000031      17.570000000000004      13.805000000000003
   284   1      5.0200000000000031      16.315000000000005      17.570000000000004
   285   1      5.0200000000000031      17.570000000000004      16.315000000000005
   286   1      3.7650000000000046      17.570000000000004      20.080000000000002
   287   1      5.0200000000000031      16.315000000000005      20.080000000000002
   288   1      5.0200000000000031      17.570000000000004      18.825000000000003
   289   1      3.7650000000000046      16.315000000000005      21.335000000000001
   290   1      3.7650000000000046      17.570000000000004                   22.59
   291   1      5.0200000000000031      16.315000000000005                   22.59
   292   1      5.0200000000000031      17.570000000000004      21.335000000000001
   293   1      3.7650000000000046      16.315000000000005      23.845000000000002
   294   1      3.7650000000000046      17.570000000000004      25.100000000000001
   295   1      5.0200000000000031      16.315000000000005      25.100000000000001
   296   1      5.0200000000000031      17.570000000000004      23.845000000000002
   297   1      3.7650000000000046      16.315000000000005      26.355000000000004
   298   1      3.7650000000000046      17.570000000000004      27.610000000000003
   299   1      5.0200000000000031      16.315000000000005      27.610000000000003
   300   1      5.0200000000000031      17.570000000000004      26.355000000000004
   301   1      3.7650000000000046      16.315000000000005      28.865000000000002
   302   1      3.7650000000000046      17.570000000000004      30.120000000000005
   303   1      5.0200000000000031      16.315000000000005      30.120000000000005
   304   1      5.0200000000000031      17.570000000000004      28.865000000000002
   305   1      3.7650000000000046      16.315000000000005                  31.375
   306   1      3.7650000000000046      17.570000000000004      32.630000000000003
   307   1      5.0200000000000031      16.315000000000005      32.630000000000003
   308   1      5.0200000000000031      17.570000000000004                  31.375
   309   1      3.7650000000000046      16.315000000000005      33.885000000000005
   310   1      3.7650000000000046      17.570000000000004      35.140000000000008
   311   1      5.0200000000000031      16.315000000000005      35.140000000000008
   312   1      5.0200000000000031      17.570000000000004      33.885000000000005
   313   1      3.7650000000000046      16.315000000000005      36.395000000000003
   314   1      3.7650000000000046      17.570000000000004      37.650000000000006
   315   1      5.0200000000000031      16.315000000000005      37.650000000000006
   316   1      5.0200000000000031      17.570000000000004      36.395000000000003
   317   1      5.0200000000000031      16.315000000000005      40.160000000000004
   318   1      5.0200000000000031      17.570000000000004      38.905000000000001
   319   1      5.0200000000000031      16.315000000000005      42.670000000000002
   320   1      5.0200000000000031      17.570000000000004      41.414999999999999
   321   1      5.0200000000000031      17.570000000000004      43.924999999999997
   322   1      5.0200000000000031      18.825000000000003      12.550000000000004
   323   1      5.0200000000000031      20.080000000000002      11.295000000000002
   324   1      5.0200000000000031      18.825000000000003      15.060000000000002
   325   1      5.0200000000000031      20.080000000000002      13.805000000000003
   326   1      3.7650000000000046      20.080000000000002      17.570000000000004
   327   1      5.0200000000000031      18.825000000000003      17.570000000000004
   328   1      5.0200000000000031      20.080000000000002      16.315000000000005
   329   1      3.7650000000000046      18.825000000000003      18.825000000000003
   330   1      3.7650000000000046      20.080000000000002      20.080000000000002
   331   1      5.0200000000000031      18.825000000000003      20.080000000000002
   332   1      5.0200000000000031      20.080000000000002      18.825000000000003
   333   1      3.7650000000000046      18.825000000000003      21.335000000000001
   334   1      3.7650000000000046      20.080000000000002                   22.59
   335   1      5.0200000000000031      18.825000000000003                   22.59
   336   1      5.0200000000000031      20.080000000000002      21.335000000000001
   337   1      3.7650000000000046      18.825000000000003      23.845000000000002
   338   1      3.7650000000000046      20.080000000000002      25.100000000000001
   339   1      5.0200000000000031      18.825000000000003      25.100000000000001
   340   1      5.0200000000000031      20.080000000000002      23.845000000000002
   341   1      3.7650000000000046      18.825000000000003      26.355000000000004
   342   1      3.7650000000000046      20.080000000000002      27.610000000000003
   343   1      5.0200000000000031      18.825000000000003      27.610000000000003
   344   1      5.0200000000000031      20.080000000000002      26.355000000000004
   345   1      3.7650000000000046      18.825000000000003      28.865000000000002
   346   1      3.7650000000000046      20.080000000000002      30.120000000000005
   347   1      5.0200000000000031      18.825000000000003      30.120000000000005
   348   1      5.0200000000000031      20.080000000000002      28.865000000000002
   349   1      3.7650000000000046      18.825000000000003                  31.375
   350   1      3.7650000000000046      20.080000000000002      32.630000000000003
   351   1      5.0200000000000031      18.825000000000003      32.630000000000003
   352   1      5.0200000000000031      20.080000000000002                  31.375
   353   1      3.7650000000000046      18.825000000000003      33.885000000000005
   354   1      3.7650000000000046      20.080000000000002      35.140000000000008
   355   1      5.0200000000000031      18.825000000000003      35.140000000000008
   356   1      5.0200000000000031      20.080000000000002      33.885000000000005
   357   1      3.7650000000000046      18.825000000000003      36.395000000000003
   358   1      3.7650000000000046      20.080000000000002      37.650000000000006