model_files/Fe/Fe_30000/Fe_520/data.Fe_520_bcc_30029 (written by ASE) 

30029 	 atoms 
1  atom types
0.0                      68  xlo xhi
0.0                      68  ylo yhi
0.0                      68  zlo zhi


Atoms 

     1   1      1.4349999999999949      30.134999999999991      31.569999999999993
     2   1      1.4349999999999949      30.134999999999991      34.439999999999991
     3   1      1.4349999999999949      30.134999999999991      37.309999999999988
     4   1      1.4349999999999949      31.569999999999993      30.134999999999991
     5   1      67.999999999999986      33.004999999999995      33.004999999999995
     6   1      1.4349999999999949      31.569999999999993      33.004999999999995
     7   1      1.4349999999999949      33.004999999999995      31.569999999999993
     8   1      67.999999999999986      33.004999999999995      35.874999999999993
     9   1      1.4349999999999949      31.569999999999993      35.874999999999993
    10   1      1.4349999999999949      33.004999999999995      34.439999999999991
    11   1      1.4349999999999949      31.569999999999993       38.74499999999999
    12   1      1.4349999999999949      33.004999999999995      37.309999999999988
    13   1      1.4349999999999949      34.439999999999991      30.134999999999991
    14   1      67.999999999999986      35.874999999999993      33.004999999999995
    15   1      1.4349999999999949      34.439999999999991      33.004999999999995
    16   1      1.4349999999999949      35.874999999999993      31.569999999999993
    17   1      67.999999999999986      34.439999999999991      34.439999999999991
    18   1      67.999999999999986      35.874999999999993      35.874999999999993
    19   1      1.4349999999999949      34.439999999999991      35.874999999999993
    20   1      1.4349999999999949      35.874999999999993      34.439999999999991
    21   1      1.4349999999999949      34.439999999999991       38.74499999999999
    22   1      1.4349999999999949      35.874999999999993      37.309999999999988
    23   1      1.4349999999999949      37.309999999999988      30.134999999999991
    24   1      1.4349999999999949      37.309999999999988      33.004999999999995
    25   1      1.4349999999999949       38.74499999999999      31.569999999999993
    26   1      1.4349999999999949      37.309999999999988      35.874999999999993
    27   1      1.4349999999999949       38.74499999999999      34.439999999999991
    28   1      1.4349999999999949      37.309999999999988       38.74499999999999
    29   1      1.4349999999999949       38.74499999999999      37.309999999999988
    30   1      4.3049999999999926      22.959999999999994      24.394999999999992
    31   1      4.3049999999999926      24.394999999999992      22.959999999999994
    32   1      4.3049999999999926      22.959999999999994      27.264999999999986
    33   1      4.3049999999999926      24.394999999999992      25.829999999999991
    34   1      4.3049999999999926      22.959999999999994      30.134999999999991
    35   1      4.3049999999999926      24.394999999999992      28.699999999999992
    36   1      4.3049999999999926      22.959999999999994      33.004999999999995
    37   1      4.3049999999999926      24.394999999999992      31.569999999999993
    38   1      4.3049999999999926      22.959999999999994      35.874999999999993
    39   1      4.3049999999999926      24.394999999999992      34.439999999999991
    40   1      4.3049999999999926      22.959999999999994       38.74499999999999
    41   1      4.3049999999999926      24.394999999999992      37.309999999999988
    42   1      4.3049999999999926      22.959999999999994      41.614999999999995
    43   1      4.3049999999999926      24.394999999999992      40.179999999999986
    44   1      4.3049999999999926      22.959999999999994      44.484999999999992
    45   1      4.3049999999999926      24.394999999999992       43.04999999999999
    46   1      4.3049999999999926      24.394999999999992      45.919999999999987
    47   1      4.3049999999999926      25.829999999999991      24.394999999999992
    48   1      4.3049999999999926      27.264999999999986      22.959999999999994
    49   1      2.8699999999999939      25.829999999999991      25.829999999999991
    50   1      2.8699999999999939      27.264999999999986      27.264999999999986
    51   1      4.3049999999999926      25.829999999999991      27.264999999999986
    52   1      4.3049999999999926      27.264999999999986      25.829999999999991
    53   1      2.8699999999999939      25.829999999999991      28.699999999999992
    54   1      2.8699999999999939      27.264999999999986      30.134999999999991
    55   1      4.3049999999999926      25.829999999999991      30.134999999999991
    56   1      4.3049999999999926      27.264999999999986      28.699999999999992
    57   1      2.8699999999999939      25.829999999999991      31.569999999999993
    58   1      2.8699999999999939      27.264999999999986      33.004999999999995
    59   1      4.3049999999999926      25.829999999999991      33.004999999999995
    60   1      4.3049999999999926      27.264999999999986      31.569999999999993
    61   1      2.8699999999999939      25.829999999999991      34.439999999999991
    62   1      2.8699999999999939      27.264999999999986      35.874999999999993
    63   1      4.3049999999999926      25.829999999999991      35.874999999999993
    64   1      4.3049999999999926      27.264999999999986      34.439999999999991
    65   1      2.8699999999999939      25.829999999999991      37.309999999999988
    66   1      2.8699999999999939      27.264999999999986       38.74499999999999
    67   1      4.3049999999999926      25.829999999999991       38.74499999999999
    68   1      4.3049999999999926      27.264999999999986      37.309999999999988
    69   1      2.8699999999999939      25.829999999999991      40.179999999999986
    70   1      2.8699999999999939      27.264999999999986      41.614999999999995
    71   1      4.3049999999999926      25.829999999999991      41.614999999999995
    72   1      4.3049999999999926      27.264999999999986      40.179999999999986
    73   1      2.8699999999999939      25.829999999999991       43.04999999999999
    74   1      4.3049999999999926      25.829999999999991      44.484999999999992
    75   1      4.3049999999999926      27.264999999999986       43.04999999999999
    76   1      4.3049999999999926      27.264999999999986      45.919999999999987
    77   1      4.3049999999999926      28.699999999999992      24.394999999999992
    78   1      4.3049999999999926      30.134999999999991      22.959999999999994
    79   1      2.8699999999999939      28.699999999999992      25.829999999999991
    80   1      2.8699999999999939      30.134999999999991      27.264999999999986
    81   1      4.3049999999999926      28.699999999999992      27.264999999999986
    82   1      4.3049999999999926      30.134999999999991      25.829999999999991
    83   1      2.8699999999999939      28.699999999999992      28.699999999999992
    84   1      2.8699999999999939      30.134999999999991      30.134999999999991
    85   1      4.3049999999999926      28.699999999999992      30.134999999999991
    86   1      4.3049999999999926      30.134999999999991      28.699999999999992
    87   1      2.8699999999999939      28.699999999999992      31.569999999999993
    88   1      2.8699999999999939      30.134999999999991      33.004999999999995
    89   1      4.3049999999999926      28.699999999999992      33.004999999999995
    90   1      4.3049999999999926      30.134999999999991      31.569999999999993
    91   1      2.8699999999999939      28.699999999999992      34.439999999999991
    92   1      2.8699999999999939      30.134999999999991      35.874999999999993
    93   1      4.3049999999999926      28.699999999999992      35.874999999999993
    94   1      4.3049999999999926      30.134999999999991      34.439999999999991
    95   1      2.8699999999999939      28.699999999999992      37.309999999999988
    96   1      2.8699999999999939      30.134999999999991       38.74499999999999
    97   1      4.3049999999999926      28.699999999999992       38.74499999999999
    98   1      4.3049999999999926      30.134999999999991      37.309999999999988
    99   1      2.8699999999999939      28.699999999999992      40.179999999999986
   100   1      2.8699999999999939      30.134999999999991      41.614999999999995
   101   1      4.3049999999999926      28.699999999999992      41.614999999999995
   102   1      4.3049999999999926      30.134999999999991      40.179999999999986
   103   1      2.8699999999999939      28.699999999999992       43.04999999999999
   104   1      4.3049999999999926      28.699999999999992      44.484999999999992
   105   1      4.3049999999999926      30.134999999999991       43.04999999999999
   106   1      4.3049999999999926      30.134999999999991      45.919999999999987
   107   1      4.3049999999999926      31.569999999999993      24.394999999999992
   108   1      4.3049999999999926      33.004999999999995      22.959999999999994
   109   1      2.8699999999999939      31.569999999999993      25.829999999999991
   110   1      2.8699999999999939      33.004999999999995      27.264999999999986
   111   1      4.3049999999999926      31.569999999999993      27.264999999999986
   112   1      4.3049999999999926      33.004999999999995      25.829999999999991
   113   1      2.8699999999999939      31.569999999999993      28.699999999999992
   114   1      2.8699999999999939      33.004999999999995      30.134999999999991
   115   1      4.3049999999999926      31.569999999999993      30.134999999999991
   116   1      4.3049999999999926      33.004999999999995      28.699999999999992
   117   1      2.8699999999999939      31.569999999999993      31.569999999999993
   118   1      2.8699999999999939      33.004999999999995      33.004999999999995
   119   1      4.3049999999999926      31.569999999999993      33.004999999999995
   120   1      4.3049999999999926      33.004999999999995      31.569999999999993
   121   1      2.8699999999999939      31.569999999999993      34.439999999999991
   122   1      2.8699999999999939      33.004999999999995      35.874999999999993
   123   1      4.3049999999999926      31.569999999999993      35.874999999999993
   124   1      4.3049999999999926      33.004999999999995      34.439999999999991
   125   1      2.8699999999999939      31.569999999999993      37.309999999999988
   126   1      2.8699999999999939      33.004999999999995       38.74499999999999
   127   1      4.3049999999999926      31.569999999999993       38.74499999999999
   128   1      4.3049999999999926      33.004999999999995      37.309999999999988
   129   1      2.8699999999999939      31.569999999999993      40.179999999999986
   130   1      2.8699999999999939      33.004999999999995      41.614999999999995
   131   1      4.3049999999999926      31.569999999999993      41.614999999999995
   132   1      4.3049999999999926      33.004999999999995      40.179999999999986
   133   1      2.8699999999999939      31.569999999999993       43.04999999999999
   134   1      4.3049999999999926      31.569999999999993      44.484999999999992
   135   1      4.3049999999999926      33.004999999999995       43.04999999999999
   136   1      4.3049999999999926      33.004999999999995      45.919999999999987
   137   1      4.3049999999999926      34.439999999999991      24.394999999999992
   138   1      4.3049999999999926      35.874999999999993      22.959999999999994
   139   1      2.8699999999999939      34.439999999999991      25.829999999999991
   140   1      2.8699999999999939      35.874999999999993      27.264999999999986
   141   1      4.3049999999999926      34.439999999999991      27.264999999999986
   142   1      4.3049999999999926      35.874999999999993      25.829999999999991
   143   1      2.8699999999999939      34.439999999999991      28.699999999999992
   144   1      2.8699999999999939      35.874999999999993      30.134999999999991
   145   1      4.3049999999999926      34.439999999999991      30.134999999999991
   146   1      4.3049999999999926      35.874999999999993      28.699999999999992
   147   1      2.8699999999999939      34.439999999999991      31.569999999999993
   148   1      2.8699999999999939      35.874999999999993      33.004999999999995
   149   1      4.3049999999999926      34.439999999999991      33.004999999999995
   150   1      4.3049999999999926      35.874999999999993      31.569999999999993
   151   1      2.8699999999999939      34.439999999999991      34.439999999999991
   152   1      2.8699999999999939      35.874999999999993      35.874999999999993
   153   1      4.3049999999999926      34.439999999999991      35.874999999999993
   154   1      4.3049999999999926      35.874999999999993      34.439999999999991
   155   1      2.8699999999999939      34.439999999999991      37.309999999999988
   156   1      2.8699999999999939      35.874999999999993       38.74499999999999
   157   1      4.3049999999999926      34.439999999999991       38.74499999999999
   158   1      4.3049999999999926      35.874999999999993      37.309999999999988
   159   1      2.8699999999999939      34.439999999999991      40.179999999999986
   160   1      2.8699999999999939      35.874999999999993      41.614999999999995
   161   1      4.3049999999999926      34.439999999999991      41.614999999999995
   162   1      4.3049999999999926      35.874999999999993      40.179999999999986
   163   1      2.8699999999999939      34.439999999999991       43.04999999999999
   164   1      4.3049999999999926      34.439999999999991      44.484999999999992
   165   1      4.3049999999999926      35.874999999999993       43.04999999999999
   166   1      4.3049999999999926      35.874999999999993      45.919999999999987
   167   1      4.3049999999999926      37.309999999999988      24.394999999999992
   168   1      4.3049999999999926       38.74499999999999      22.959999999999994
   169   1      2.8699999999999939      37.309999999999988      25.829999999999991
   170   1      2.8699999999999939       38.74499999999999      27.264999999999986
   171   1      4.3049999999999926      37.309999999999988      27.264999999999986
   172   1      4.3049999999999926       38.74499999999999      25.829999999999991
   173   1      2.8699999999999939      37.309999999999988      28.699999999999992
   174   1      2.8699999999999939       38.74499999999999      30.134999999999991
   175   1      4.3049999999999926      37.309999999999988      30.134999999999991
   176   1      4.3049999999999926       38.74499999999999      28.699999999999992
   177   1      2.8699999999999939      37.309999999999988      31.569999999999993
   178   1      2.8699999999999939       38.74499999999999      33.004999999999995
   179   1      4.3049999999999926      37.309999999999988      33.004999999999995
   180   1      4.3049999999999926       38.74499999999999      31.569999999999993
   181   1      2.8699999999999939      37.309999999999988      34.439999999999991
   182   1      2.8699999999999939       38.74499999999999      35.874999999999993
   183   1      4.3049999999999926      37.309999999999988      35.874999999999993
   184   1      4.3049999999999926       38.74499999999999      34.439999999999991
   185   1      2.8699999999999939      37.309999999999988      37.309999999999988
   186   1      2.8699999999999939       38.74499999999999       38.74499999999999
   187   1      4.3049999999999926      37.309999999999988       38.74499999999999
   188   1      4.3049999999999926       38.74499999999999      37.309999999999988
   189   1      2.8699999999999939      37.309999999999988      40.179999999999986
   190   1      2.8699999999999939       38.74499999999999      41.614999999999995
   191   1      4.3049999999999926      37.309999999999988      41.614999999999995
   192   1      4.3049999999999926       38.74499999999999      40.179999999999986
   193   1      2.8699999999999939      37.309999999999988       43.04999999999999
   194   1      4.3049999999999926      37.309999999999988      44.484999999999992
   195   1      4.3049999999999926       38.74499999999999       43.04999999999999
   196   1      4.3049999999999926       38.74499999999999      45.919999999999987
   197   1      4.3049999999999926      40.179999999999986      24.394999999999992
   198   1      4.3049999999999926      41.614999999999995      22.959999999999994
   199   1      2.8699999999999939      40.179999999999986      25.829999999999991
   200   1      2.8699999999999939      41.614999999999995      27.264999999999986
   201   1      4.3049999999999926      40.179999999999986      27.264999999999986
   202   1      4.3049999999999926      41.614999999999995      25.829999999999991
   203   1      2.8699999999999939      40.179999999999986      28.699999999999992
   204   1      2.8699999999999939      41.614999999999995      30.134999999999991
   205   1      4.3049999999999926      40.179999999999986      30.134999999999991
   206   1      4.3049999999999926      41.614999999999995      28.699999999999992
   207   1      2.8699999999999939      40.179999999999986      31.569999999999993
   208   1      2.8699999999999939      41.614999999999995      33.004999999999995
   209   1      4.3049999999999926      40.179999999999986      33.004999999999995
   210   1      4.3049999999999926      41.614999999999995      31.569999999999993
   211   1      2.8699999999999939      40.179999999999986      34.439999999999991
   212   1      2.8699999999999939      41.614999999999995      35.874999999999993
   213   1      4.3049999999999926      40.179999999999986      35.874999999999993
   214   1      4.3049999999999926      41.614999999999995      34.439999999999991
   215   1      2.8699999999999939      40.179999999999986      37.309999999999988
   216   1      2.8699999999999939      41.614999999999995       38.74499999999999
   217   1      4.3049999999999926      40.179999999999986       38.74499999999999
   218   1      4.3049999999999926      41.614999999999995      37.309999999999988
   219   1      2.8699999999999939      40.179999999999986      40.179999999999986
   220   1      2.8699999999999939      41.614999999999995      41.614999999999995
   221   1      4.3049999999999926      40.179999999999986      41.614999999999995
   222   1      4.3049999999999926      41.614999999999995      40.179999999999986
   223   1      2.8699999999999939      40.179999999999986       43.04999999999999
   224   1      4.3049999999999926      40.179999999999986      44.484999999999992
   225   1      4.3049999999999926      41.614999999999995       43.04999999999999
   226   1      4.3049999999999926      41.614999999999995      45.919999999999987
   227   1      4.3049999999999926       43.04999999999999      24.394999999999992
   228   1      4.3049999999999926      44.484999999999992      22.959999999999994
   229   1      2.8699999999999939       43.04999999999999      25.829999999999991
   230   1      4.3049999999999926       43.04999999999999      27.264999999999986
   231   1      4.3049999999999926      44.484999999999992      25.829999999999991
   232   1      2.8699999999999939       43.04999999999999      28.699999999999992
   233   1      4.3049999999999926       43.04999999999999      30.134999999999991
   234   1      4.3049999999999926      44.484999999999992      28.699999999999992
   235   1      2.8699999999999939       43.04999999999999      31.569999999999993
   236   1      4.3049999999999926       43.04999999999999      33.004999999999995
   237   1      4.3049999999999926      44.484999999999992      31.569999999999993
   238   1      2.8699999999999939       43.04999999999999      34.439999999999991
   239   1      4.3049999999999926       43.04999999999999      35.874999999999993
   240   1      4.3049999999999926      44.484999999999992      34.439999999999991
   241   1      2.8699999999999939       43.04999999999999      37.309999999999988
   242   1      4.3049999999999926       43.04999999999999       38.74499999999999
   243   1      4.3049999999999926      44.484999999999992      37.309999999999988
   244   1      2.8699999999999939       43.04999999999999      40.179999999999986
   245   1      4.3049999999999926       43.04999999999999      41.614999999999995
   246   1      4.3049999999999926      44.484999999999992      40.179999999999986
   247   1      2.8699999999999939       43.04999999999999       43.04999999999999
   248   1      4.3049999999999926       43.04999999999999      44.484999999999992
   249   1      4.3049999999999926      44.484999999999992       43.04999999999999
   250   1      4.3049999999999926      44.484999999999992      45.919999999999987
   251   1      4.3049999999999926      45.919999999999987      24.394999999999992
   252   1      4.3049999999999926      45.919999999999987      27.264999999999986
   253   1      4.3049999999999926      45.919999999999987      30.134999999999991
   254   1      4.3049999999999926      45.919999999999987      33.004999999999995
   255   1      4.3049999999999926      45.919999999999987      35.874999999999993
   256   1      4.3049999999999926      45.919999999999987       38.74499999999999
   257   1      4.3049999999999926      45.919999999999987      41.614999999999995
   258   1      4.3049999999999926      45.919999999999987      44.484999999999992
   259   1      7.1749999999999972      15.784999999999993      17.219999999999992
   260   1      7.1749999999999972      15.784999999999993      20.089999999999993
   261   1      7.1749999999999972      15.784999999999993      22.959999999999994
   262   1      7.1749999999999972      15.784999999999993      25.829999999999991
   263   1      7.1749999999999972      15.784999999999993      28.699999999999992
   264   1      7.1749999999999972      15.784999999999993      31.569999999999993
   265   1      7.1749999999999972      15.784999999999993      34.439999999999991
   266   1      7.1749999999999972      15.784999999999993      37.309999999999988
   267   1      7.1749999999999972      15.784999999999993      40.179999999999986
   268   1      7.1749999999999972      15.784999999999993       43.04999999999999
   269   1      7.1749999999999972      15.784999999999993      45.919999999999987
   270   1      7.1749999999999972      15.784999999999993      48.789999999999992
   271   1      7.1749999999999972      15.784999999999993      51.659999999999989
   272   1      7.1749999999999972      17.219999999999992      15.784999999999993
   273   1      5.7399999999999949       18.65499999999999       18.65499999999999
   274   1      7.1749999999999972      17.219999999999992       18.65499999999999
   275   1      7.1749999999999972       18.65499999999999      17.219999999999992
   276   1      5.7399999999999949       18.65499999999999      21.524999999999991
   277   1      7.1749999999999972      17.219999999999992      21.524999999999991
   278   1      7.1749999999999972       18.65499999999999      20.089999999999993
   279   1      5.7399999999999949       18.65499999999999      24.394999999999992
   280   1      7.1749999999999972      17.219999999999992      24.394999999999992
   281   1      7.1749999999999972       18.65499999999999      22.959999999999994
   282   1      5.7399999999999949       18.65499999999999      27.264999999999986
   283   1      7.1749999999999972      17.219999999999992      27.264999999999986
   284   1      7.1749999999999972       18.65499999999999      25.829999999999991
   285   1      5.7399999999999949       18.65499999999999      30.134999999999991
   286   1      7.1749999999999972      17.219999999999992      30.134999999999991
   287   1      7.1749999999999972       18.65499999999999      28.699999999999992
   288   1      5.7399999999999949       18.65499999999999      33.004999999999995
   289   1      7.1749999999999972      17.219999999999992      33.004999999999995
   290   1      7.1749999999999972       18.65499999999999      31.569999999999993
   291   1      5.7399999999999949       18.65499999999999      35.874999999999993
   292   1      7.1749999999999972      17.219999999999992      35.874999999999993
   293   1      7.1749999999999972       18.65499999999999      34.439999999999991
   294   1      5.7399999999999949       18.65499999999999       38.74499999999999
   295   1      7.1749999999999972      17.219999999999992       38.74499999999999
   296   1      7.1749999999999972       18.65499999999999      37.309999999999988
   297   1      5.7399999999999949       18.65499999999999      41.614999999999995
   298   1      7.1749999999999972      17.219999999999992      41.614999999999995
   299   1      7.1749999999999972       18.65499999999999      40.179999999999986
   300   1      5.7399999999999949       18.65499999999999      44.484999999999992
   301   1      7.1749999999999972      17.219999999999992      44.484999999999992
   302   1      7.1749999999999972       18.65499999999999       43.04999999999999
   303   1      5.7399999999999949       18.65499999999999      47.354999999999983
   304   1      7.1749999999999972      17.219999999999992      47.354999999999983
   305   1      7.1749999999999972       18.65499999999999      45.919999999999987
   306   1      5.7399999999999949       18.65499999999999      50.224999999999994
   307   1      7.1749999999999972      17.219999999999992      50.224999999999994
   308   1      7.1749999999999972       18.65499999999999      48.789999999999992
   309   1      7.1749999999999972      17.219999999999992      53.094999999999992
   310   1      7.1749999999999972       18.65499999999999      51.659999999999989
   311   1      7.1749999999999972      20.089999999999993      15.784999999999993
   312   1      5.7399999999999949      21.524999999999991       18.65499999999999
   313   1      7.1749999999999972      20.089999999999993       18.65499999999999
   314   1      7.1749999999999972      21.524999999999991      17.219999999999992
   315   1      5.7399999999999949      20.089999999999993      20.089999999999993
   316   1      5.7399999999999949      21.524999999999991      21.524999999999991
   317   1      7.1749999999999972      20.089999999999993      21.524999999999991
   318   1      7.1749999999999972      21.524999999999991      20.089999999999993
   319   1      5.7399999999999949      20.089999999999993      22.959999999999994
   320   1      5.7399999999999949      21.524999999999991      24.394999999999992
   321   1      7.1749999999999972      20.089999999999993      24.394999999999992
   322   1      7.1749999999999972      21.524999999999991      22.959999999999994
   323   1      5.7399999999999949      20.089999999999993      25.829999999999991
   324   1      5.7399999999999949      21.524999999999991      27.264999999999986
   325   1      7.1749999999999972      20.089999999999993      27.264999999999986
   326   1      7.1749999999999972      21.524999999999991      25.829999999999991
   327   1      5.7399999999999949      20.089999999999993      28.699999999999992
   328   1      5.7399999999999949      21.524999999999991      30.134999999999991
   329   1      7.1749999999999972      20.089999999999993      30.134999999999991
   330   1      7.1749999999999972      21.524999999999991      28.699999999999992
   331   1      5.7399999999999949      20.089999999999993      31.569999999999993
   332   1      5.7399999999999949      21.524999999999991      33.004999999999995
   333   1      7.1749999999999972      20.089999999999993      33.004999999999995
   334   1      7.1749999999999972      21.524999999999991      31.569999999999993
   335   1      5.7399999999999949      20.089999999999993      34.439999999999991
   336   1      5.7399999999999949      21.524999999999991      35.874999999999993
   337   1      7.1749999999999972      20.089999999999993      35.874999999999993
   338   1      7.1749999999999972      21.524999999999991      34.439999999999991
   339   1      5.7399999999999949      20.089999999999993      37.309999999999988
   340   1      5.7399999999999949      21.524999999999991       38.74499999999999
   341   1      7.1749999999999972      20.089999999999993       38.74499999999999
   342   1      7.1749999999999972      21.524999999999991      37.309999999999988
   343   1      5.7399999999999949      20.089999999999993      40.179999999999986
   344   1      5.7399999999999949      21.524999999999991      41.614999999999995
   345   1      7.1749999999999972      20.089999999999993      41.614999999999995
   346   1      7.1749999999999972      21.524999999999991      40.179999999999986
   347   1      5.7399999999999949      20.089999999999993       43.04999999999999
   348   1      5.7399999999999949      21.524999999999991      44.484999999999992
   349   1      7.1749999999999972      20.089999999999993      44.484999999999992
   350   1      7.1749999999999972      21.524999999999991       43.04999999999999
   351   1      5.7399999999999949      20.089999999999993      45.919999999999987
   352   1      5.7399999999999949      21.524999999999991      47.354999999999983
   353   1      7.1749999999999972      20.089999999999993      47.354999999999983
   354   1      7.1749999999999972      21.524999999999991      45.919999999999987
   355   1      5.7399999999999949      20.089999999999993      48.789999999999992
   356   1      5.7399999999999949      21.524999999999991      50.224999999999994
   357   1      7.1749999999999972      20.089999999999993      50.224999999999994
   358   1      7.1749999999999972      21.524999999999991      48.789999999999992