model_files/CuNi/CuNi_30000/CuNi_540/CuNi_540_fcc_29765_temp.data (written by ASE) 

29765 	 atoms 
2  atom types
0.0                     101  xlo xhi
0.0                     101  ylo yhi
0.0                     101  zlo zhi


Atoms 

     1   1                       0      48.141000000000005      48.141000000000005
     2   1      1.7829999999999941      46.358000000000004      48.141000000000005
     3   1      1.7829999999999941      48.141000000000005      46.358000000000004
     4   1                       0      48.141000000000005      51.707000000000001
     5   1      1.7829999999999941      46.358000000000004      51.707000000000001
     6   1      1.7829999999999941      48.141000000000005      49.923999999999999
     7   1      1.7829999999999941      48.141000000000005      53.490000000000002
     8   1                       0      51.707000000000001      48.141000000000005
     9   1      1.7829999999999941      49.923999999999999      48.141000000000005
    10   1      1.7829999999999941      51.707000000000001      46.358000000000004
    11   1                       0      49.923999999999999      49.923999999999999
    12   1                       0      51.707000000000001      51.707000000000001
    13   1      1.7829999999999941      49.923999999999999      51.707000000000001
    14   1      1.7829999999999941      51.707000000000001      49.923999999999999
    15   1      1.7829999999999941      51.707000000000001      53.490000000000002
    16   1      1.7829999999999941      53.490000000000002      48.141000000000005
    17   1      1.7829999999999941      53.490000000000002      51.707000000000001
    18   1      3.5659999999999954      44.575000000000003      44.575000000000003
    19   1      5.3489999999999966      42.792000000000002      44.575000000000003
    20   1      5.3489999999999966      44.575000000000003      42.792000000000002
    21   1      3.5659999999999954      44.575000000000003      48.141000000000005
    22   1      5.3489999999999966      42.792000000000002      48.141000000000005
    23   1      5.3489999999999966      44.575000000000003      46.358000000000004
    24   1      3.5659999999999954      44.575000000000003      51.707000000000001
    25   1      5.3489999999999966      42.792000000000002      51.707000000000001
    26   1      5.3489999999999966      44.575000000000003      49.923999999999999
    27   1      3.5659999999999954      44.575000000000003      55.273000000000003
    28   1      5.3489999999999966      42.792000000000002      55.273000000000003
    29   1      5.3489999999999966      44.575000000000003      53.490000000000002
    30   1      5.3489999999999966      44.575000000000003      57.056000000000004
    31   1      3.5659999999999954      48.141000000000005      44.575000000000003
    32   1      5.3489999999999966      46.358000000000004      44.575000000000003
    33   1      5.3489999999999966      48.141000000000005      42.792000000000002
    34   1      3.5659999999999954      46.358000000000004      46.358000000000004
    35   1      3.5659999999999954      48.141000000000005      48.141000000000005
    36   1      5.3489999999999966      46.358000000000004      48.141000000000005
    37   1      5.3489999999999966      48.141000000000005      46.358000000000004
    38   1      3.5659999999999954      46.358000000000004      49.923999999999999
    39   1      3.5659999999999954      48.141000000000005      51.707000000000001
    40   1      5.3489999999999966      46.358000000000004      51.707000000000001
    41   1      5.3489999999999966      48.141000000000005      49.923999999999999
    42   1      3.5659999999999954      46.358000000000004      53.490000000000002
    43   1      3.5659999999999954      48.141000000000005      55.273000000000003
    44   1      5.3489999999999966      46.358000000000004      55.273000000000003
    45   1      5.3489999999999966      48.141000000000005      53.490000000000002
    46   1      5.3489999999999966      48.141000000000005      57.056000000000004
    47   1      3.5659999999999954      51.707000000000001      44.575000000000003
    48   1      5.3489999999999966      49.923999999999999      44.575000000000003
    49   1      5.3489999999999966      51.707000000000001      42.792000000000002
    50   1      3.5659999999999954      49.923999999999999      46.358000000000004
    51   1      3.5659999999999954      51.707000000000001      48.141000000000005
    52   1      5.3489999999999966      49.923999999999999      48.141000000000005
    53   1      5.3489999999999966      51.707000000000001      46.358000000000004
    54   1      3.5659999999999954      49.923999999999999      49.923999999999999
    55   1      3.5659999999999954      51.707000000000001      51.707000000000001
    56   1      5.3489999999999966      49.923999999999999      51.707000000000001
    57   1      5.3489999999999966      51.707000000000001      49.923999999999999
    58   1      3.5659999999999954      49.923999999999999      53.490000000000002
    59   1      3.5659999999999954      51.707000000000001      55.273000000000003
    60   1      5.3489999999999966      49.923999999999999      55.273000000000003
    61   1      5.3489999999999966      51.707000000000001      53.490000000000002
    62   1      5.3489999999999966      51.707000000000001      57.056000000000004
    63   1      3.5659999999999954      55.273000000000003      44.575000000000003
    64   1      5.3489999999999966      53.490000000000002      44.575000000000003
    65   1      5.3489999999999966      55.273000000000003      42.792000000000002
    66   1      3.5659999999999954      53.490000000000002      46.358000000000004
    67   1      3.5659999999999954      55.273000000000003      48.141000000000005
    68   1      5.3489999999999966      53.490000000000002      48.141000000000005
    69   1      5.3489999999999966      55.273000000000003      46.358000000000004
    70   1      3.5659999999999954      53.490000000000002      49.923999999999999
    71   1      3.5659999999999954      55.273000000000003      51.707000000000001
    72   1      5.3489999999999966      53.490000000000002      51.707000000000001
    73   1      5.3489999999999966      55.273000000000003      49.923999999999999
    74   1      3.5659999999999954      53.490000000000002      53.490000000000002
    75   1      3.5659999999999954      55.273000000000003      55.273000000000003
    76   1      5.3489999999999966      53.490000000000002      55.273000000000003
    77   1      5.3489999999999966      55.273000000000003      53.490000000000002
    78   1      5.3489999999999966      55.273000000000003      57.056000000000004
    79   1      5.3489999999999966      57.056000000000004      44.575000000000003
    80   1      5.3489999999999966      57.056000000000004      48.141000000000005
    81   1      5.3489999999999966      57.056000000000004      51.707000000000001
    82   1      5.3489999999999966      57.056000000000004      55.273000000000003
    83   1      8.9149999999999991      37.443000000000005      39.225999999999999
    84   1      8.9149999999999991      37.443000000000005      42.792000000000002
    85   1      8.9149999999999991      37.443000000000005      46.358000000000004
    86   1      8.9149999999999991      37.443000000000005      49.923999999999999
    87   1      8.9149999999999991      37.443000000000005      53.490000000000002
    88   1      8.9149999999999991      37.443000000000005      57.056000000000004
    89   1      8.9149999999999991      37.443000000000005                  60.622
    90   1      8.9149999999999991      39.225999999999999      37.443000000000005
    91   1      7.1319999999999979      39.225999999999999      39.225999999999999
    92   1      7.1319999999999979                  41.009                  41.009
    93   1      8.9149999999999991      39.225999999999999                  41.009
    94   1      8.9149999999999991                  41.009      39.225999999999999
    95   1      7.1319999999999979      39.225999999999999      42.792000000000002
    96   1      7.1319999999999979                  41.009      44.575000000000003
    97   1      8.9149999999999991      39.225999999999999      44.575000000000003
    98   1      8.9149999999999991                  41.009      42.792000000000002
    99   1      7.1319999999999979      39.225999999999999      46.358000000000004
   100   1      7.1319999999999979                  41.009      48.141000000000005
   101   1      8.9149999999999991      39.225999999999999      48.141000000000005
   102   1      8.9149999999999991                  41.009      46.358000000000004
   103   1      7.1319999999999979      39.225999999999999      49.923999999999999
   104   1      7.1319999999999979                  41.009      51.707000000000001
   105   1      8.9149999999999991      39.225999999999999      51.707000000000001
   106   1      8.9149999999999991                  41.009      49.923999999999999
   107   1      7.1319999999999979      39.225999999999999      53.490000000000002
   108   1      7.1319999999999979                  41.009      55.273000000000003
   109   1      8.9149999999999991      39.225999999999999      55.273000000000003
   110   1      8.9149999999999991                  41.009      53.490000000000002
   111   1      7.1319999999999979      39.225999999999999      57.056000000000004
   112   1      7.1319999999999979                  41.009      58.839000000000006
   113   1      8.9149999999999991      39.225999999999999      58.839000000000006
   114   1      8.9149999999999991                  41.009      57.056000000000004
   115   1      7.1319999999999979      39.225999999999999                  60.622
   116   1      8.9149999999999991      39.225999999999999      62.405000000000001
   117   1      8.9149999999999991                  41.009                  60.622
   118   1      8.9149999999999991      42.792000000000002      37.443000000000005
   119   1      7.1319999999999979      42.792000000000002      39.225999999999999
   120   1      7.1319999999999979      44.575000000000003                  41.009
   121   1      8.9149999999999991      42.792000000000002                  41.009
   122   1      8.9149999999999991      44.575000000000003      39.225999999999999
   123   1      7.1319999999999979      42.792000000000002      42.792000000000002
   124   1      7.1319999999999979      44.575000000000003      44.575000000000003
   125   1      8.9149999999999991      42.792000000000002      44.575000000000003
   126   1      8.9149999999999991      44.575000000000003      42.792000000000002
   127   1      7.1319999999999979      42.792000000000002      46.358000000000004
   128   1      7.1319999999999979      44.575000000000003      48.141000000000005
   129   1      8.9149999999999991      42.792000000000002      48.141000000000005
   130   1      8.9149999999999991      44.575000000000003      46.358000000000004
   131   1      7.1319999999999979      42.792000000000002      49.923999999999999
   132   1      7.1319999999999979      44.575000000000003      51.707000000000001
   133   1      8.9149999999999991      42.792000000000002      51.707000000000001
   134   1      8.9149999999999991      44.575000000000003      49.923999999999999
   135   1      7.1319999999999979      42.792000000000002      53.490000000000002
   136   1      7.1319999999999979      44.575000000000003      55.273000000000003
   137   1      8.9149999999999991      42.792000000000002      55.273000000000003
   138   1      8.9149999999999991      44.575000000000003      53.490000000000002
   139   1      7.1319999999999979      42.792000000000002      57.056000000000004
   140   1      7.1319999999999979      44.575000000000003      58.839000000000006
   141   1      8.9149999999999991      42.792000000000002      58.839000000000006
   142   1      8.9149999999999991      44.575000000000003      57.056000000000004
   143   1      7.1319999999999979      42.792000000000002                  60.622
   144   1      8.9149999999999991      42.792000000000002      62.405000000000001
   145   1      8.9149999999999991      44.575000000000003                  60.622
   146   1      8.9149999999999991      46.358000000000004      37.443000000000005
   147   1      7.1319999999999979      46.358000000000004      39.225999999999999
   148   1      7.1319999999999979      48.141000000000005                  41.009
   149   1      8.9149999999999991      46.358000000000004                  41.009
   150   1      8.9149999999999991      48.141000000000005      39.225999999999999
   151   1      7.1319999999999979      46.358000000000004      42.792000000000002
   152   1      7.1319999999999979      48.141000000000005      44.575000000000003
   153   1      8.9149999999999991      46.358000000000004      44.575000000000003
   154   1      8.9149999999999991      48.141000000000005      42.792000000000002
   155   1      7.1319999999999979      46.358000000000004      46.358000000000004
   156   1      7.1319999999999979      48.141000000000005      48.141000000000005
   157   1      8.9149999999999991      46.358000000000004      48.141000000000005
   158   1      8.9149999999999991      48.141000000000005      46.358000000000004
   159   1      7.1319999999999979      46.358000000000004      49.923999999999999
   160   1      7.1319999999999979      48.141000000000005      51.707000000000001
   161   1      8.9149999999999991      46.358000000000004      51.707000000000001
   162   1      8.9149999999999991      48.141000000000005      49.923999999999999
   163   1      7.1319999999999979      46.358000000000004      53.490000000000002
   164   1      7.1319999999999979      48.141000000000005      55.273000000000003
   165   1      8.9149999999999991      46.358000000000004      55.273000000000003
   166   1      8.9149999999999991      48.141000000000005      53.490000000000002
   167   1      7.1319999999999979      46.358000000000004      57.056000000000004
   168   1      7.1319999999999979      48.141000000000005      58.839000000000006
   169   1      8.9149999999999991      46.358000000000004      58.839000000000006
   170   1      8.9149999999999991      48.141000000000005      57.056000000000004
   171   1      7.1319999999999979      46.358000000000004                  60.622
   172   1      8.9149999999999991      46.358000000000004      62.405000000000001
   173   1      8.9149999999999991      48.141000000000005                  60.622
   174   1      8.9149999999999991      49.923999999999999      37.443000000000005
   175   1      7.1319999999999979      49.923999999999999      39.225999999999999
   176   1      7.1319999999999979      51.707000000000001                  41.009
   177   1      8.9149999999999991      49.923999999999999                  41.009
   178   1      8.9149999999999991      51.707000000000001      39.225999999999999
   179   1      7.1319999999999979      49.923999999999999      42.792000000000002
   180   1      7.1319999999999979      51.707000000000001      44.575000000000003
   181   1      8.9149999999999991      49.923999999999999      44.575000000000003
   182   1      8.9149999999999991      51.707000000000001      42.792000000000002
   183   1      7.1319999999999979      49.923999999999999      46.358000000000004
   184   1      7.1319999999999979      51.707000000000001      48.141000000000005
   185   1      8.9149999999999991      49.923999999999999      48.141000000000005
   186   1      8.9149999999999991      51.707000000000001      46.358000000000004
   187   1      7.1319999999999979      49.923999999999999      49.923999999999999
   188   1      7.1319999999999979      51.707000000000001      51.707000000000001
   189   1      8.9149999999999991      49.923999999999999      51.707000000000001
   190   1      8.9149999999999991      51.707000000000001      49.923999999999999
   191   1      7.1319999999999979      49.923999999999999      53.490000000000002
   192   1      7.1319999999999979      51.707000000000001      55.273000000000003
   193   1      8.9149999999999991      49.923999999999999      55.273000000000003
   194   1      8.9149999999999991      51.707000000000001      53.490000000000002
   195   1      7.1319999999999979      49.923999999999999      57.056000000000004
   196   1      7.1319999999999979      51.707000000000001      58.839000000000006
   197   1      8.9149999999999991      49.923999999999999      58.839000000000006
   198   1      8.9149999999999991      51.707000000000001      57.056000000000004
   199   1      7.1319999999999979      49.923999999999999                  60.622
   200   1      8.9149999999999991      49.923999999999999      62.405000000000001
   201   1      8.9149999999999991      51.707000000000001                  60.622
   202   1      8.9149999999999991      53.490000000000002      37.443000000000005
   203   1      7.1319999999999979      53.490000000000002      39.225999999999999
   204   1      7.1319999999999979      55.273000000000003                  41.009
   205   1      8.9149999999999991      53.490000000000002                  41.009
   206   1      8.9149999999999991      55.273000000000003      39.225999999999999
   207   1      7.1319999999999979      53.490000000000002      42.792000000000002
   208   1      7.1319999999999979      55.273000000000003      44.575000000000003
   209   1      8.9149999999999991      53.490000000000002      44.575000000000003
   210   1      8.9149999999999991      55.273000000000003      42.792000000000002
   211   1      7.1319999999999979      53.490000000000002      46.358000000000004
   212   1      7.1319999999999979      55.273000000000003      48.141000000000005
   213   1      8.9149999999999991      53.490000000000002      48.141000000000005
   214   1      8.9149999999999991      55.273000000000003      46.358000000000004
   215   1      7.1319999999999979      53.490000000000002      49.923999999999999
   216   1      7.1319999999999979      55.273000000000003      51.707000000000001
   217   1      8.9149999999999991      53.490000000000002      51.707000000000001
   218   1      8.9149999999999991      55.273000000000003      49.923999999999999
   219   1      7.1319999999999979      53.490000000000002      53.490000000000002
   220   1      7.1319999999999979      55.273000000000003      55.273000000000003
   221   1      8.9149999999999991      53.490000000000002      55.273000000000003
   222   1      8.9149999999999991      55.273000000000003      53.490000000000002
   223   1      7.1319999999999979      53.490000000000002      57.056000000000004
   224   1      7.1319999999999979      55.273000000000003      58.839000000000006
   225   1      8.9149999999999991      53.490000000000002      58.839000000000006
   226   1      8.9149999999999991      55.273000000000003      57.056000000000004
   227   1      7.1319999999999979      53.490000000000002                  60.622
   228   1      8.9149999999999991      53.490000000000002      62.405000000000001
   229   1      8.9149999999999991      55.273000000000003                  60.622
   230   1      8.9149999999999991      57.056000000000004      37.443000000000005
   231   1      7.1319999999999979      57.056000000000004      39.225999999999999
   232   1      7.1319999999999979      58.839000000000006                  41.009
   233   1      8.9149999999999991      57.056000000000004                  41.009
   234   1      8.9149999999999991      58.839000000000006      39.225999999999999
   235   1      7.1319999999999979      57.056000000000004      42.792000000000002
   236   1      7.1319999999999979      58.839000000000006      44.575000000000003
   237   1      8.9149999999999991      57.056000000000004      44.575000000000003
   238   1      8.9149999999999991      58.839000000000006      42.792000000000002
   239   1      7.1319999999999979      57.056000000000004      46.358000000000004
   240   1      7.1319999999999979      58.839000000000006      48.141000000000005
   241   1      8.9149999999999991      57.056000000000004      48.141000000000005
   242   1      8.9149999999999991      58.839000000000006      46.358000000000004
   243   1      7.1319999999999979      57.056000000000004      49.923999999999999
   244   1      7.1319999999999979      58.839000000000006      51.707000000000001
   245   1      8.9149999999999991      57.056000000000004      51.707000000000001
   246   1      8.9149999999999991      58.839000000000006      49.923999999999999
   247   1      7.1319999999999979      57.056000000000004      53.490000000000002
   248   1      7.1319999999999979      58.839000000000006      55.273000000000003
   249   1      8.9149999999999991      57.056000000000004      55.273000000000003
   250   1      8.9149999999999991      58.839000000000006      53.490000000000002
   251   1      7.1319999999999979      57.056000000000004      57.056000000000004
   252   1      7.1319999999999979      58.839000000000006      58.839000000000006
   253   1      8.9149999999999991      57.056000000000004      58.839000000000006
   254   1      8.9149999999999991      58.839000000000006      57.056000000000004
   255   1      7.1319999999999979      57.056000000000004                  60.622
   256   1      8.9149999999999991      57.056000000000004      62.405000000000001
   257   1      8.9149999999999991      58.839000000000006                  60.622
   258   1      8.9149999999999991                  60.622      37.443000000000005
   259   1      7.1319999999999979                  60.622      39.225999999999999
   260   1      8.9149999999999991                  60.622                  41.009
   261   1      8.9149999999999991      62.405000000000001      39.225999999999999
   262   1      7.1319999999999979                  60.622      42.792000000000002
   263   1      8.9149999999999991                  60.622      44.575000000000003
   264   1      8.9149999999999991      62.405000000000001      42.792000000000002
   265   1      7.1319999999999979                  60.622      46.358000000000004
   266   1      8.9149999999999991                  60.622      48.141000000000005
   267   1      8.9149999999999991      62.405000000000001      46.358000000000004
   268   1      7.1319999999999979                  60.622      49.923999999999999
   269   1      8.9149999999999991                  60.622      51.707000000000001
   270   1      8.9149999999999991      62.405000000000001      49.923999999999999
   271   1      7.1319999999999979                  60.622      53.490000000000002
   272   1      8.9149999999999991                  60.622      55.273000000000003
   273   1      8.9149999999999991      62.405000000000001      53.490000000000002
   274   1      7.1319999999999979                  60.622      57.056000000000004
   275   1      8.9149999999999991                  60.622      58.839000000000006
   276   1      8.9149999999999991      62.405000000000001      57.056000000000004
   277   1      7.1319999999999979                  60.622                  60.622
   278   1      8.9149999999999991                  60.622      62.405000000000001
   279   1      8.9149999999999991      62.405000000000001                  60.622
   280   1      12.481000000000002      33.877000000000002      35.660000000000004
   281   1      12.481000000000002      33.877000000000002      39.225999999999999
   282   1      12.481000000000002      33.877000000000002      42.792000000000002
   283   1      12.481000000000002      33.877000000000002      46.358000000000004
   284   1      12.481000000000002      33.877000000000002      49.923999999999999
   285   1      12.481000000000002      33.877000000000002      53.490000000000002
   286   1      12.481000000000002      33.877000000000002      57.056000000000004
   287   1      12.481000000000002      33.877000000000002                  60.622
   288   1      12.481000000000002      33.877000000000002      64.188000000000002
   289   1      12.481000000000002      35.660000000000004      33.877000000000002
   290   1                  10.698      35.660000000000004      35.660000000000004
   291   1                  10.698      37.443000000000005      37.443000000000005
   292   1      12.481000000000002      35.660000000000004      37.443000000000005
   293   1      12.481000000000002      37.443000000000005      35.660000000000004
   294   1                  10.698      35.660000000000004      39.225999999999999
   295   1                  10.698      37.443000000000005                  41.009
   296   1      12.481000000000002      35.660000000000004                  41.009
   297   1      12.481000000000002      37.443000000000005      39.225999999999999
   298   1                  10.698      35.660000000000004      42.792000000000002
   299   1                  10.698      37.443000000000005      44.575000000000003
   300   1      12.481000000000002      35.660000000000004      44.575000000000003
   301   1      12.481000000000002      37.443000000000005      42.792000000000002
   302   1                  10.698      35.660000000000004      46.358000000000004
   303   1                  10.698      37.443000000000005      48.141000000000005
   304   1      12.481000000000002      35.660000000000004      48.141000000000005
   305   1      12.481000000000002      37.443000000000005      46.358000000000004
   306   1                  10.698      35.660000000000004      49.923999999999999
   307   1                  10.698      37.443000000000005      51.707000000000001
   308   1      12.481000000000002      35.660000000000004      51.707000000000001
   309   1      12.481000000000002      37.443000000000005      49.923999999999999
   310   1                  10.698      35.660000000000004      53.490000000000002
   311   1                  10.698      37.443000000000005      55.273000000000003
   312   1      12.481000000000002      35.660000000000004      55.273000000000003
   313   1      12.481000000000002      37.443000000000005      53.490000000000002
   314   1                  10.698      35.660000000000004      57.056000000000004
   315   1                  10.698      37.443000000000005      58.839000000000006
   316   1      12.481000000000002      35.660000000000004      58.839000000000006
   317   1      12.481000000000002      37.443000000000005      57.056000000000004
   318   1                  10.698      35.660000000000004                  60.622
   319   1                  10.698      37.443000000000005      62.405000000000001
   320   1      12.481000000000002      35.660000000000004      62.405000000000001
   321   1      12.481000000000002      37.443000000000005                  60.622
   322   1                  10.698      35.660000000000004      64.188000000000002
   323   1      12.481000000000002      35.660000000000004      65.971000000000004
   324   1      12.481000000000002      37.443000000000005      64.188000000000002
   325   1      12.481000000000002      39.225999999999999      33.877000000000002
   326   1                  10.698      39.225999999999999      35.660000000000004
   327   1                  10.698                  41.009      37.443000000000005
   328   1      12.481000000000002      39.225999999999999      37.443000000000005
   329   1      12.481000000000002                  41.009      35.660000000000004
   330   1                  10.698      39.225999999999999      39.225999999999999
   331   1                  10.698                  41.009                  41.009
   332   1      12.481000000000002      39.225999999999999                  41.009
   333   1      12.481000000000002                  41.009      39.225999999999999
   334   1                  10.698      39.225999999999999      42.792000000000002
   335   1                  10.698                  41.009      44.575000000000003
   336   1      12.481000000000002      39.225999999999999      44.575000000000003
   337   1      12.481000000000002                  41.009      42.792000000000002
   338   1                  10.698      39.225999999999999      46.358000000000004
   339   1                  10.698                  41.009      48.141000000000005
   340   1      12.481000000000002      39.225999999999999      48.141000000000005
   341   1      12.481000000000002                  41.009      46.358000000000004
   342   1                  10.698      39.225999999999999      49.923999999999999
   343   1                  10.698                  41.009      51.707000000000001
   344   1      12.481000000000002      39.225999999999999      51.707000000000001
   345   1      12.481000000000002                  41.009      49.923999999999999
   346   1                  10.698      39.225999999999999      53.490000000000002
   347   1                  10.698                  41.009      55.273000000000003
   348   1      12.481000000000002      39.225999999999999      55.273000000000003
   349   1      12.481000000000002                  41.009      53.490000000000002
   350   1                  10.698      39.225999999999999      57.056000000000004
   351   1                  10.698                  41.009      58.839000000000006
   352   1      12.481000000000002      39.225999999999999      58.839000000000006
   353   1      12.481000000000002                  41.009      57.056000000000004
   354   1                  10.698      39.225999999999999                  60.622
   355   1                  10.698                  41.009      62.405000000000001
   356   1      12.481000000000002      39.225999999999999      62.405000000000001
   357   1      12.481000000000002                  41.009                  60.622
   358   1                  10.698      39.225999999999999      64.188000000000002