model_files/Pt/Pt_10000/Pt_111/data.Pt_111_fcc_10425 (written by ASE) 

10425 	 atoms 
1  atom types
0.0                      94  xlo xhi
0.0                      94  ylo yhi
0.0                      94  zlo zhi


Atoms 

     1   1      1.9600000000000009      45.079999999999998      47.039999999999999
     2   1      1.9600000000000009      47.039999999999999      45.079999999999998
     3   1                       0      47.039999999999999      47.039999999999999
     4   1      1.9600000000000009      47.039999999999999                      49
     5   1      1.9600000000000009                      49      47.039999999999999
     6   1      5.8800000000000026      41.159999999999997      47.039999999999999
     7   1      3.9199999999999942      45.079999999999998      45.079999999999998
     8   1      5.8800000000000026      43.119999999999997      45.079999999999998
     9   1      5.8800000000000026      45.079999999999998      43.119999999999997
    10   1      3.9199999999999942      43.119999999999997      47.039999999999999
    11   1      3.9199999999999942      45.079999999999998                      49
    12   1      5.8800000000000026      43.119999999999997                      49
    13   1      5.8800000000000026      45.079999999999998      47.039999999999999
    14   1      5.8800000000000026      45.079999999999998      50.959999999999987
    15   1      5.8800000000000026      47.039999999999999      41.159999999999997
    16   1      3.9199999999999942      47.039999999999999      43.119999999999997
    17   1      3.9199999999999942                      49      45.079999999999998
    18   1      5.8800000000000026      47.039999999999999      45.079999999999998
    19   1      5.8800000000000026                      49      43.119999999999997
    20   1      3.9199999999999942      47.039999999999999      47.039999999999999
    21   1      3.9199999999999942                      49                      49
    22   1      5.8800000000000026      47.039999999999999                      49
    23   1      5.8800000000000026                      49      47.039999999999999
    24   1      3.9199999999999942      47.039999999999999      50.959999999999987
    25   1      5.8800000000000026      47.039999999999999      52.919999999999995
    26   1      5.8800000000000026                      49      50.959999999999987
    27   1      5.8800000000000026      50.959999999999987      45.079999999999998
    28   1      3.9199999999999942      50.959999999999987      47.039999999999999
    29   1      5.8800000000000026      50.959999999999987                      49
    30   1      5.8800000000000026      52.919999999999995      47.039999999999999
    31   1      9.7999999999999972      37.240000000000002      47.039999999999999
    32   1      7.8399999999999963      41.159999999999997      45.079999999999998
    33   1      9.7999999999999972      39.199999999999996      45.079999999999998
    34   1      9.7999999999999972      41.159999999999997      43.119999999999997
    35   1      7.8399999999999963      39.199999999999996      47.039999999999999
    36   1      7.8399999999999963      41.159999999999997                      49
    37   1      9.7999999999999972      39.199999999999996                      49
    38   1      9.7999999999999972      41.159999999999997      47.039999999999999
    39   1      9.7999999999999972      41.159999999999997      50.959999999999987
    40   1      7.8399999999999963      45.079999999999998      41.159999999999997
    41   1      9.7999999999999972      43.119999999999997      41.159999999999997
    42   1      9.7999999999999972      45.079999999999998      39.199999999999996
    43   1      7.8399999999999963      43.119999999999997      43.119999999999997
    44   1      7.8399999999999963      45.079999999999998      45.079999999999998
    45   1      9.7999999999999972      43.119999999999997      45.079999999999998
    46   1      9.7999999999999972      45.079999999999998      43.119999999999997
    47   1      7.8399999999999963      43.119999999999997      47.039999999999999
    48   1      7.8399999999999963      45.079999999999998                      49
    49   1      9.7999999999999972      43.119999999999997                      49
    50   1      9.7999999999999972      45.079999999999998      47.039999999999999
    51   1      7.8399999999999963      43.119999999999997      50.959999999999987
    52   1      7.8399999999999963      45.079999999999998      52.919999999999995
    53   1      9.7999999999999972      43.119999999999997      52.919999999999995
    54   1      9.7999999999999972      45.079999999999998      50.959999999999987
    55   1      9.7999999999999972      45.079999999999998      54.879999999999988
    56   1      9.7999999999999972      47.039999999999999      37.240000000000002
    57   1      7.8399999999999963      47.039999999999999      39.199999999999996
    58   1      7.8399999999999963                      49      41.159999999999997
    59   1      9.7999999999999972      47.039999999999999      41.159999999999997
    60   1      9.7999999999999972                      49      39.199999999999996
    61   1      7.8399999999999963      47.039999999999999      43.119999999999997
    62   1      7.8399999999999963                      49      45.079999999999998
    63   1      9.7999999999999972      47.039999999999999      45.079999999999998
    64   1      9.7999999999999972                      49      43.119999999999997
    65   1      7.8399999999999963      47.039999999999999      47.039999999999999
    66   1      7.8399999999999963                      49                      49
    67   1      9.7999999999999972      47.039999999999999                      49
    68   1      9.7999999999999972                      49      47.039999999999999
    69   1      7.8399999999999963      47.039999999999999      50.959999999999987
    70   1      7.8399999999999963                      49      52.919999999999995
    71   1      9.7999999999999972      47.039999999999999      52.919999999999995
    72   1      9.7999999999999972                      49      50.959999999999987
    73   1      7.8399999999999963      47.039999999999999      54.879999999999988
    74   1      9.7999999999999972      47.039999999999999      56.839999999999996
    75   1      9.7999999999999972                      49      54.879999999999988
    76   1      9.7999999999999972      50.959999999999987      41.159999999999997
    77   1      7.8399999999999963      50.959999999999987      43.119999999999997
    78   1      7.8399999999999963      52.919999999999995      45.079999999999998
    79   1      9.7999999999999972      50.959999999999987      45.079999999999998
    80   1      9.7999999999999972      52.919999999999995      43.119999999999997
    81   1      7.8399999999999963      50.959999999999987      47.039999999999999
    82   1      7.8399999999999963      52.919999999999995                      49
    83   1      9.7999999999999972      50.959999999999987                      49
    84   1      9.7999999999999972      52.919999999999995      47.039999999999999
    85   1      7.8399999999999963      50.959999999999987      50.959999999999987
    86   1      9.7999999999999972      50.959999999999987      52.919999999999995
    87   1      9.7999999999999972      52.919999999999995      50.959999999999987
    88   1      9.7999999999999972      54.879999999999988      45.079999999999998
    89   1      7.8399999999999963      54.879999999999988      47.039999999999999
    90   1      9.7999999999999972      54.879999999999988                      49
    91   1      9.7999999999999972      56.839999999999996      47.039999999999999
    92   1      13.719999999999997                   33.32      47.039999999999999
    93   1      11.759999999999996      37.240000000000002      45.079999999999998
    94   1      13.719999999999997      35.280000000000001      45.079999999999998
    95   1      13.719999999999997      37.240000000000002      43.119999999999997
    96   1      11.759999999999996      35.280000000000001      47.039999999999999
    97   1      11.759999999999996      37.240000000000002                      49
    98   1      13.719999999999997      35.280000000000001                      49
    99   1      13.719999999999997      37.240000000000002      47.039999999999999
   100   1      13.719999999999997      37.240000000000002      50.959999999999987
   101   1      11.759999999999996      41.159999999999997      41.159999999999997
   102   1      13.719999999999997      39.199999999999996      41.159999999999997
   103   1      13.719999999999997      41.159999999999997      39.199999999999996
   104   1      11.759999999999996      39.199999999999996      43.119999999999997
   105   1      11.759999999999996      41.159999999999997      45.079999999999998
   106   1      13.719999999999997      39.199999999999996      45.079999999999998
   107   1      13.719999999999997      41.159999999999997      43.119999999999997
   108   1      11.759999999999996      39.199999999999996      47.039999999999999
   109   1      11.759999999999996      41.159999999999997                      49
   110   1      13.719999999999997      39.199999999999996                      49
   111   1      13.719999999999997      41.159999999999997      47.039999999999999
   112   1      11.759999999999996      39.199999999999996      50.959999999999987
   113   1      11.759999999999996      41.159999999999997      52.919999999999995
   114   1      13.719999999999997      39.199999999999996      52.919999999999995
   115   1      13.719999999999997      41.159999999999997      50.959999999999987
   116   1      13.719999999999997      41.159999999999997      54.879999999999988
   117   1      11.759999999999996      45.079999999999998      37.240000000000002
   118   1      13.719999999999997      43.119999999999997      37.240000000000002
   119   1      13.719999999999997      45.079999999999998      35.280000000000001
   120   1      11.759999999999996      43.119999999999997      39.199999999999996
   121   1      11.759999999999996      45.079999999999998      41.159999999999997
   122   1      13.719999999999997      43.119999999999997      41.159999999999997
   123   1      13.719999999999997      45.079999999999998      39.199999999999996
   124   1      11.759999999999996      43.119999999999997      43.119999999999997
   125   1      11.759999999999996      45.079999999999998      45.079999999999998
   126   1      13.719999999999997      43.119999999999997      45.079999999999998
   127   1      13.719999999999997      45.079999999999998      43.119999999999997
   128   1      11.759999999999996      43.119999999999997      47.039999999999999
   129   1      11.759999999999996      45.079999999999998                      49
   130   1      13.719999999999997      43.119999999999997                      49
   131   1      13.719999999999997      45.079999999999998      47.039999999999999
   132   1      11.759999999999996      43.119999999999997      50.959999999999987
   133   1      11.759999999999996      45.079999999999998      52.919999999999995
   134   1      13.719999999999997      43.119999999999997      52.919999999999995
   135   1      13.719999999999997      45.079999999999998      50.959999999999987
   136   1      11.759999999999996      43.119999999999997      54.879999999999988
   137   1      11.759999999999996      45.079999999999998      56.839999999999996
   138   1      13.719999999999997      43.119999999999997      56.839999999999996
   139   1      13.719999999999997      45.079999999999998      54.879999999999988
   140   1      13.719999999999997      45.079999999999998       58.79999999999999
   141   1      13.719999999999997      47.039999999999999                   33.32
   142   1      11.759999999999996      47.039999999999999      35.280000000000001
   143   1      11.759999999999996                      49      37.240000000000002
   144   1      13.719999999999997      47.039999999999999      37.240000000000002
   145   1      13.719999999999997                      49      35.280000000000001
   146   1      11.759999999999996      47.039999999999999      39.199999999999996
   147   1      11.759999999999996                      49      41.159999999999997
   148   1      13.719999999999997      47.039999999999999      41.159999999999997
   149   1      13.719999999999997                      49      39.199999999999996
   150   1      11.759999999999996      47.039999999999999      43.119999999999997
   151   1      11.759999999999996                      49      45.079999999999998
   152   1      13.719999999999997      47.039999999999999      45.079999999999998
   153   1      13.719999999999997                      49      43.119999999999997
   154   1      11.759999999999996      47.039999999999999      47.039999999999999
   155   1      11.759999999999996                      49                      49
   156   1      13.719999999999997      47.039999999999999                      49
   157   1      13.719999999999997                      49      47.039999999999999
   158   1      11.759999999999996      47.039999999999999      50.959999999999987
   159   1      11.759999999999996                      49      52.919999999999995
   160   1      13.719999999999997      47.039999999999999      52.919999999999995
   161   1      13.719999999999997                      49      50.959999999999987
   162   1      11.759999999999996      47.039999999999999      54.879999999999988
   163   1      11.759999999999996                      49      56.839999999999996
   164   1      13.719999999999997      47.039999999999999      56.839999999999996
   165   1      13.719999999999997                      49      54.879999999999988
   166   1      11.759999999999996      47.039999999999999       58.79999999999999
   167   1      13.719999999999997      47.039999999999999      60.759999999999984
   168   1      13.719999999999997                      49       58.79999999999999
   169   1      13.719999999999997      50.959999999999987      37.240000000000002
   170   1      11.759999999999996      50.959999999999987      39.199999999999996
   171   1      11.759999999999996      52.919999999999995      41.159999999999997
   172   1      13.719999999999997      50.959999999999987      41.159999999999997
   173   1      13.719999999999997      52.919999999999995      39.199999999999996
   174   1      11.759999999999996      50.959999999999987      43.119999999999997
   175   1      11.759999999999996      52.919999999999995      45.079999999999998
   176   1      13.719999999999997      50.959999999999987      45.079999999999998
   177   1      13.719999999999997      52.919999999999995      43.119999999999997
   178   1      11.759999999999996      50.959999999999987      47.039999999999999
   179   1      11.759999999999996      52.919999999999995                      49
   180   1      13.719999999999997      50.959999999999987                      49
   181   1      13.719999999999997      52.919999999999995      47.039999999999999
   182   1      11.759999999999996      50.959999999999987      50.959999999999987
   183   1      11.759999999999996      52.919999999999995      52.919999999999995
   184   1      13.719999999999997      50.959999999999987      52.919999999999995
   185   1      13.719999999999997      52.919999999999995      50.959999999999987
   186   1      11.759999999999996      50.959999999999987      54.879999999999988
   187   1      13.719999999999997      50.959999999999987      56.839999999999996
   188   1      13.719999999999997      52.919999999999995      54.879999999999988
   189   1      13.719999999999997      54.879999999999988      41.159999999999997
   190   1      11.759999999999996      54.879999999999988      43.119999999999997
   191   1      11.759999999999996      56.839999999999996      45.079999999999998
   192   1      13.719999999999997      54.879999999999988      45.079999999999998
   193   1      13.719999999999997      56.839999999999996      43.119999999999997
   194   1      11.759999999999996      54.879999999999988      47.039999999999999
   195   1      11.759999999999996      56.839999999999996                      49
   196   1      13.719999999999997      54.879999999999988                      49
   197   1      13.719999999999997      56.839999999999996      47.039999999999999
   198   1      11.759999999999996      54.879999999999988      50.959999999999987
   199   1      13.719999999999997      54.879999999999988      52.919999999999995
   200   1      13.719999999999997      56.839999999999996      50.959999999999987
   201   1      13.719999999999997       58.79999999999999      45.079999999999998
   202   1      11.759999999999996       58.79999999999999      47.039999999999999
   203   1      13.719999999999997       58.79999999999999                      49
   204   1      13.719999999999997      60.759999999999984      47.039999999999999
   205   1      17.640000000000001      29.399999999999995      47.039999999999999
   206   1      15.679999999999998                   33.32      45.079999999999998
   207   1      17.640000000000001      31.359999999999996      45.079999999999998
   208   1      17.640000000000001                   33.32      43.119999999999997
   209   1      15.679999999999998      31.359999999999996      47.039999999999999
   210   1      15.679999999999998                   33.32                      49
   211   1      17.640000000000001      31.359999999999996                      49
   212   1      17.640000000000001                   33.32      47.039999999999999
   213   1      17.640000000000001                   33.32      50.959999999999987
   214   1      15.679999999999998      37.240000000000002      41.159999999999997
   215   1      17.640000000000001      35.280000000000001      41.159999999999997
   216   1      17.640000000000001      37.240000000000002      39.199999999999996
   217   1      15.679999999999998      35.280000000000001      43.119999999999997
   218   1      15.679999999999998      37.240000000000002      45.079999999999998
   219   1      17.640000000000001      35.280000000000001      45.079999999999998
   220   1      17.640000000000001      37.240000000000002      43.119999999999997
   221   1      15.679999999999998      35.280000000000001      47.039999999999999
   222   1      15.679999999999998      37.240000000000002                      49
   223   1      17.640000000000001      35.280000000000001                      49
   224   1      17.640000000000001      37.240000000000002      47.039999999999999
   225   1      15.679999999999998      35.280000000000001      50.959999999999987
   226   1      15.679999999999998      37.240000000000002      52.919999999999995
   227   1      17.640000000000001      35.280000000000001      52.919999999999995
   228   1      17.640000000000001      37.240000000000002      50.959999999999987
   229   1      17.640000000000001      37.240000000000002      54.879999999999988
   230   1      15.679999999999998      41.159999999999997      37.240000000000002
   231   1      17.640000000000001      39.199999999999996      37.240000000000002
   232   1      17.640000000000001      41.159999999999997      35.280000000000001
   233   1      15.679999999999998      39.199999999999996      39.199999999999996
   234   1      15.679999999999998      41.159999999999997      41.159999999999997
   235   1      17.640000000000001      39.199999999999996      41.159999999999997
   236   1      17.640000000000001      41.159999999999997      39.199999999999996
   237   1      15.679999999999998      39.199999999999996      43.119999999999997
   238   1      15.679999999999998      41.159999999999997      45.079999999999998
   239   1      17.640000000000001      39.199999999999996      45.079999999999998
   240   1      17.640000000000001      41.159999999999997      43.119999999999997
   241   1      15.679999999999998      39.199999999999996      47.039999999999999
   242   1      15.679999999999998      41.159999999999997                      49
   243   1      17.640000000000001      39.199999999999996                      49
   244   1      17.640000000000001      41.159999999999997      47.039999999999999
   245   1      15.679999999999998      39.199999999999996      50.959999999999987
   246   1      15.679999999999998      41.159999999999997      52.919999999999995
   247   1      17.640000000000001      39.199999999999996      52.919999999999995
   248   1      17.640000000000001      41.159999999999997      50.959999999999987
   249   1      15.679999999999998      39.199999999999996      54.879999999999988
   250   1      15.679999999999998      41.159999999999997      56.839999999999996
   251   1      17.640000000000001      39.199999999999996      56.839999999999996
   252   1      17.640000000000001      41.159999999999997      54.879999999999988
   253   1      17.640000000000001      41.159999999999997       58.79999999999999
   254   1      15.679999999999998      45.079999999999998                   33.32
   255   1      17.640000000000001      43.119999999999997                   33.32
   256   1      17.640000000000001      45.079999999999998      31.359999999999996
   257   1      15.679999999999998      43.119999999999997      35.280000000000001
   258   1      15.679999999999998      45.079999999999998      37.240000000000002
   259   1      17.640000000000001      43.119999999999997      37.240000000000002
   260   1      17.640000000000001      45.079999999999998      35.280000000000001
   261   1      15.679999999999998      43.119999999999997      39.199999999999996
   262   1      15.679999999999998      45.079999999999998      41.159999999999997
   263   1      17.640000000000001      43.119999999999997      41.159999999999997
   264   1      17.640000000000001      45.079999999999998      39.199999999999996
   265   1      15.679999999999998      43.119999999999997      43.119999999999997
   266   1      15.679999999999998      45.079999999999998      45.079999999999998
   267   1      17.640000000000001      43.119999999999997      45.079999999999998
   268   1      17.640000000000001      45.079999999999998      43.119999999999997
   269   1      15.679999999999998      43.119999999999997      47.039999999999999
   270   1      15.679999999999998      45.079999999999998                      49
   271   1      17.640000000000001      43.119999999999997                      49
   272   1      17.640000000000001      45.079999999999998      47.039999999999999
   273   1      15.679999999999998      43.119999999999997      50.959999999999987
   274   1      15.679999999999998      45.079999999999998      52.919999999999995
   275   1      17.640000000000001      43.119999999999997      52.919999999999995
   276   1      17.640000000000001      45.079999999999998      50.959999999999987
   277   1      15.679999999999998      43.119999999999997      54.879999999999988
   278   1      15.679999999999998      45.079999999999998      56.839999999999996
   279   1      17.640000000000001      43.119999999999997      56.839999999999996
   280   1      17.640000000000001      45.079999999999998      54.879999999999988
   281   1      15.679999999999998      43.119999999999997       58.79999999999999
   282   1      15.679999999999998      45.079999999999998      60.759999999999984
   283   1      17.640000000000001      43.119999999999997      60.759999999999984
   284   1      17.640000000000001      45.079999999999998       58.79999999999999
   285   1      17.640000000000001      45.079999999999998      62.719999999999992
   286   1      17.640000000000001      47.039999999999999      29.399999999999995
   287   1      15.679999999999998      47.039999999999999      31.359999999999996
   288   1      15.679999999999998                      49                   33.32
   289   1      17.640000000000001      47.039999999999999                   33.32
   290   1      17.640000000000001                      49      31.359999999999996
   291   1      15.679999999999998      47.039999999999999      35.280000000000001
   292   1      15.679999999999998                      49      37.240000000000002
   293   1      17.640000000000001      47.039999999999999      37.240000000000002
   294   1      17.640000000000001                      49      35.280000000000001
   295   1      15.679999999999998      47.039999999999999      39.199999999999996
   296   1      15.679999999999998                      49      41.159999999999997
   297   1      17.640000000000001      47.039999999999999      41.159999999999997
   298   1      17.640000000000001                      49      39.199999999999996
   299   1      15.679999999999998      47.039999999999999      43.119999999999997
   300   1      15.679999999999998                      49      45.079999999999998
   301   1      17.640000000000001      47.039999999999999      45.079999999999998
   302   1      17.640000000000001                      49      43.119999999999997
   303   1      15.679999999999998      47.039999999999999      47.039999999999999
   304   1      15.679999999999998                      49                      49
   305   1      17.640000000000001      47.039999999999999                      49
   306   1      17.640000000000001                      49      47.039999999999999
   307   1      15.679999999999998      47.039999999999999      50.959999999999987
   308   1      15.679999999999998                      49      52.919999999999995
   309   1      17.640000000000001      47.039999999999999      52.919999999999995
   310   1      17.640000000000001                      49      50.959999999999987
   311   1      15.679999999999998      47.039999999999999      54.879999999999988
   312   1      15.679999999999998                      49      56.839999999999996
   313   1      17.640000000000001      47.039999999999999      56.839999999999996
   314   1      17.640000000000001                      49      54.879999999999988
   315   1      15.679999999999998      47.039999999999999       58.79999999999999
   316   1      15.679999999999998                      49      60.759999999999984
   317   1      17.640000000000001      47.039999999999999      60.759999999999984
   318   1      17.640000000000001                      49       58.79999999999999
   319   1      15.679999999999998      47.039999999999999      62.719999999999992
   320   1      17.640000000000001      47.039999999999999      64.679999999999993
   321   1      17.640000000000001                      49      62.719999999999992
   322   1      17.640000000000001      50.959999999999987                   33.32
   323   1      15.679999999999998      50.959999999999987      35.280000000000001
   324   1      15.679999999999998      52.919999999999995      37.240000000000002
   325   1      17.640000000000001      50.959999999999987      37.240000000000002
   326   1      17.640000000000001      52.919999999999995      35.280000000000001
   327   1      15.679999999999998      50.959999999999987      39.199999999999996
   328   1      15.679999999999998      52.919999999999995      41.159999999999997
   329   1      17.640000000000001      50.959999999999987      41.159999999999997
   330   1      17.640000000000001      52.919999999999995      39.199999999999996
   331   1      15.679999999999998      50.959999999999987      43.119999999999997
   332   1      15.679999999999998      52.919999999999995      45.079999999999998
   333   1      17.640000000000001      50.959999999999987      45.079999999999998
   334   1      17.640000000000001      52.919999999999995      43.119999999999997
   335   1      15.679999999999998      50.959999999999987      47.039999999999999
   336   1      15.679999999999998      52.919999999999995                      49
   337   1      17.640000000000001      50.959999999999987                      49
   338   1      17.640000000000001      52.919999999999995      47.039999999999999
   339   1      15.679999999999998      50.959999999999987      50.959999999999987
   340   1      15.679999999999998      52.919999999999995      52.919999999999995
   341   1      17.640000000000001      50.959999999999987      52.919999999999995
   342   1      17.640000000000001      52.919999999999995      50.959999999999987
   343   1      15.679999999999998      50.959999999999987      54.879999999999988
   344   1      15.679999999999998      52.919999999999995      56.839999999999996
   345   1      17.640000000000001      50.959999999999987      56.839999999999996
   346   1      17.640000000000001      52.919999999999995      54.879999999999988
   347   1      15.679999999999998      50.959999999999987       58.79999999999999
   348   1      17.640000000000001      50.959999999999987      60.759999999999984
   349   1      17.640000000000001      52.919999999999995       58.79999999999999
   350   1      17.640000000000001      54.879999999999988      37.240000000000002
   351   1      15.679999999999998      54.879999999999988      39.199999999999996
   352   1      15.679999999999998      56.839999999999996      41.159999999999997
   353   1      17.640000000000001      54.879999999999988      41.159999999999997
   354   1      17.640000000000001      56.839999999999996      39.199999999999996
   355   1      15.679999999999998      54.879999999999988      43.119999999999997
   356   1      15.679999999999998      56.839999999999996      45.079999999999998
   357   1      17.640000000000001      54.879999999999988      45.079999999999998
   358   1      17.640000000000001      56.839999999999996      43.119999999999997